
.Version 9.8.4 of ABINIT 
.(MPI version, prepared for a x86_64_linux_gnu12.3 computer) 

.Copyright (C) 1998-2022 ABINIT group . 
 ABINIT comes with ABSOLUTELY NO WARRANTY.
 It is free software, and you are welcome to redistribute it
 under certain conditions (GNU General Public License,
 see ~abinit/COPYING or http://www.gnu.org/copyleft/gpl.txt).

 ABINIT is a project of the Universite Catholique de Louvain,
 Corning Inc. and other collaborators, see ~abinit/doc/developers/contributors.txt .
 Please read https://docs.abinit.org/theory/acknowledgments for suggested
 acknowledgments of the ABINIT effort.
 For more information, see https://www.abinit.org .

.Starting date : Thu  4 Apr 2024.
- ( at 09h40 )
  
- input  file    -> rlx.abi
- output file    -> rlx.abo
- root for input  files -> rlxi
- root for output files -> ./outdata/rlx


 Symmetries : space group Fd -3 m (#227); Bravais cF (face-center cubic)
================================================================================
 Values of the parameters that define the memory need of the present run
     intxc =       0    ionmov =       2      iscf =       7    lmnmax =       6
     lnmax =       6     mgfft =      24  mpssoang =       3    mqgrid =    3001
     natom =       2  nloc_mem =       1    nspden =       1   nspinor =       1
    nsppol =       1      nsym =      48    n1xccc =    2501    ntypat =       1
    occopt =       1   xclevel =       2
-    mband =           5        mffmem =           1         mkmem =          10
       mpw =         611          nfft =       13824          nkpt =          10
================================================================================
P This job should need less than                       5.709 Mbytes of memory.
  Rough estimation (10% accuracy) of disk space for files :
_ WF disk file :      0.468 Mbytes ; DEN or POT disk file :      0.107 Mbytes.
================================================================================

--------------------------------------------------------------------------------
------------- Echo of variables that govern the present computation ------------
--------------------------------------------------------------------------------
-
- outvars: echo of selected default values                                      
-   iomode0 =  0 , fftalg0 =312 , wfoptalg0 =  0
-
- outvars: echo of global parameters not present in the input file              
-  max_nthreads =    0
-
 -outvars: echo values of preprocessed input variables --------
            acell      1.0180000000E+01  1.0180000000E+01  1.0180000000E+01 Bohr
              amu      2.80855000E+01
           diemac      1.20000000E+01
          dilatmx      1.05000000E+00
             ecut      1.20000000E+01 Hartree
           ecutsm      5.00000000E-01 Hartree
-          fftalg         312
           getwfk          -1
           ionmov           2
              ixc          11
              kpt     -1.25000000E-01 -2.50000000E-01  0.00000000E+00
                      -1.25000000E-01  5.00000000E-01  0.00000000E+00
                      -2.50000000E-01 -3.75000000E-01  0.00000000E+00
                      -1.25000000E-01 -3.75000000E-01  1.25000000E-01
                      -1.25000000E-01  2.50000000E-01  0.00000000E+00
                      -2.50000000E-01  3.75000000E-01  0.00000000E+00
                      -3.75000000E-01  5.00000000E-01  0.00000000E+00
                      -2.50000000E-01  5.00000000E-01  1.25000000E-01
                      -1.25000000E-01  0.00000000E+00  0.00000000E+00
                      -3.75000000E-01  0.00000000E+00  0.00000000E+00
         kptrlatt        4   -4    4     -4    4    4     -4   -4    4
          kptrlen      4.07200000E+01
P           mkmem          10
            natom           2
            nband           5
            ngfft          24      24      24
             nkpt          10
            nstep          10
             nsym          48
            ntime          10
           ntypat           1
              occ      2.000000  2.000000  2.000000  2.000000  0.000000
          optcell           1
            rprim      0.0000000000E+00  5.0000000000E-01  5.0000000000E-01
                       5.0000000000E-01  0.0000000000E+00  5.0000000000E-01
                       5.0000000000E-01  5.0000000000E-01  0.0000000000E+00
           shiftk      5.00000000E-01  5.00000000E-01  5.00000000E-01
          spgroup         227
           symrel      1  0  0   0  1  0   0  0  1      -1  0  0   0 -1  0   0  0 -1
                       0 -1  1   0 -1  0   1 -1  0       0  1 -1   0  1  0  -1  1  0
                      -1  0  0  -1  0  1  -1  1  0       1  0  0   1  0 -1   1 -1  0
                       0  1 -1   1  0 -1   0  0 -1       0 -1  1  -1  0  1   0  0  1
                      -1  0  0  -1  1  0  -1  0  1       1  0  0   1 -1  0   1  0 -1
                       0 -1  1   1 -1  0   0 -1  0       0  1 -1  -1  1  0   0  1  0
                       1  0  0   0  0  1   0  1  0      -1  0  0   0  0 -1   0 -1  0
                       0  1 -1   0  0 -1   1  0 -1       0 -1  1   0  0  1  -1  0  1
                      -1  0  1  -1  1  0  -1  0  0       1  0 -1   1 -1  0   1  0  0
                       0 -1  0   1 -1  0   0 -1  1       0  1  0  -1  1  0   0  1 -1
                       1  0 -1   0  0 -1   0  1 -1      -1  0  1   0  0  1   0 -1  1
                       0  1  0   0  0  1   1  0  0       0 -1  0   0  0 -1  -1  0  0
                       1  0 -1   0  1 -1   0  0 -1      -1  0  1   0 -1  1   0  0  1
                       0 -1  0   0 -1  1   1 -1  0       0  1  0   0  1 -1  -1  1  0
                      -1  0  1  -1  0  0  -1  1  0       1  0 -1   1  0  0   1 -1  0
                       0  1  0   1  0  0   0  0  1       0 -1  0  -1  0  0   0  0 -1
                       0  0 -1   0  1 -1   1  0 -1       0  0  1   0 -1  1  -1  0  1
                       1 -1  0   0 -1  1   0 -1  0      -1  1  0   0  1 -1   0  1  0
                       0  0  1   1  0  0   0  1  0       0  0 -1  -1  0  0   0 -1  0
                      -1  1  0  -1  0  0  -1  0  1       1 -1  0   1  0  0   1  0 -1
                       0  0  1   0  1  0   1  0  0       0  0 -1   0 -1  0  -1  0  0
                       1 -1  0   0 -1  0   0 -1  1      -1  1  0   0  1  0   0  1 -1
                       0  0 -1   1  0 -1   0  1 -1       0  0  1  -1  0  1   0 -1  1
                      -1  1  0  -1  0  1  -1  0  0       1 -1  0   1  0 -1   1  0  0
            tnons      0.0000000  0.0000000  0.0000000     0.2500000  0.2500000  0.2500000
                       0.0000000  0.0000000  0.0000000     0.2500000  0.2500000  0.2500000
                       0.0000000  0.0000000  0.0000000     0.2500000  0.2500000  0.2500000
                       0.0000000  0.0000000  0.0000000     0.2500000  0.2500000  0.2500000
                       0.0000000  0.0000000  0.0000000     0.2500000  0.2500000  0.2500000
                       0.0000000  0.0000000  0.0000000     0.2500000  0.2500000  0.2500000
                       0.0000000  0.0000000  0.0000000     0.2500000  0.2500000  0.2500000
                       0.0000000  0.0000000  0.0000000     0.2500000  0.2500000  0.2500000
                       0.0000000  0.0000000  0.0000000     0.2500000  0.2500000  0.2500000
                       0.0000000  0.0000000  0.0000000     0.2500000  0.2500000  0.2500000
                       0.0000000  0.0000000  0.0000000     0.2500000  0.2500000  0.2500000
                       0.0000000  0.0000000  0.0000000     0.2500000  0.2500000  0.2500000
                       0.0000000  0.0000000  0.0000000     0.2500000  0.2500000  0.2500000
                       0.0000000  0.0000000  0.0000000     0.2500000  0.2500000  0.2500000
                       0.0000000  0.0000000  0.0000000     0.2500000  0.2500000  0.2500000
                       0.0000000  0.0000000  0.0000000     0.2500000  0.2500000  0.2500000
                       0.0000000  0.0000000  0.0000000     0.2500000  0.2500000  0.2500000
                       0.0000000  0.0000000  0.0000000     0.2500000  0.2500000  0.2500000
                       0.0000000  0.0000000  0.0000000     0.2500000  0.2500000  0.2500000
                       0.0000000  0.0000000  0.0000000     0.2500000  0.2500000  0.2500000
                       0.0000000  0.0000000  0.0000000     0.2500000  0.2500000  0.2500000
                       0.0000000  0.0000000  0.0000000     0.2500000  0.2500000  0.2500000
                       0.0000000  0.0000000  0.0000000     0.2500000  0.2500000  0.2500000
                       0.0000000  0.0000000  0.0000000     0.2500000  0.2500000  0.2500000
           toldfe      1.00000000E-06 Hartree
            typat      1  1
              wtk        0.09375    0.09375    0.09375    0.18750    0.09375    0.09375
                         0.09375    0.18750    0.03125    0.03125
           xangst      0.0000000000E+00  0.0000000000E+00  0.0000000000E+00
                       1.3467559959E+00  1.3467559959E+00  1.3467559959E+00
            xcart      0.0000000000E+00  0.0000000000E+00  0.0000000000E+00
                       2.5450000000E+00  2.5450000000E+00  2.5450000000E+00
             xred      0.0000000000E+00  0.0000000000E+00  0.0000000000E+00
                       2.5000000000E-01  2.5000000000E-01  2.5000000000E-01
            znucl       14.00000

================================================================================

 chkinp: Checking input parameters for consistency.

================================================================================
== DATASET  1 ==================================================================
-   mpi_nproc: 1, omp_nthreads: -1 (-1 if OMP is not activated)


--- !DatasetInfo
iteration_state: {dtset: 1, }
dimensions: {natom: 2, nkpt: 10, mband: 5, nsppol: 1, nspinor: 1, nspden: 1, mpw: 611, }
cutoff_energies: {ecut:  12.0, pawecutdg:  -1.0, }
electrons: {nelect:   8.00000000E+00, charge:   0.00000000E+00, occopt:   1.00000000E+00, tsmear:   1.00000000E-02, }
meta: {optdriver: 0, ionmov: 2, optcell: 1, iscf: 7, paral_kgb: 0, }
...

 Exchange-correlation functional for the present dataset will be:
  GGA: Perdew-Burke-Ernzerhof functional - ixc=11
 Citation for XC functional:
  J.P.Perdew, K.Burke, M.Ernzerhof, PRL 77, 3865 (1996)

 Real(R)+Recip(G) space primitive vectors, cartesian coordinates (Bohr,Bohr^-1):
 R(1)=  0.0000000  5.0900000  5.0900000  G(1)= -0.0982318  0.0982318  0.0982318
 R(2)=  5.0900000  0.0000000  5.0900000  G(2)=  0.0982318 -0.0982318  0.0982318
 R(3)=  5.0900000  5.0900000  0.0000000  G(3)=  0.0982318  0.0982318 -0.0982318
 Unit cell volume ucvol=  2.6374446E+02 bohr^3
 Angles (23,13,12)=  6.00000000E+01  6.00000000E+01  6.00000000E+01 degrees

 getcut: wavevector=  0.0000  0.0000  0.0000  ngfft=  24  24  24
         ecut(hartree)=     13.230   => boxcut(ratio)=   2.03626

--- Pseudopotential description ------------------------------------------------
- pspini: atom type   1  psp file is ../../../pseudos/pseudo-dojo_nc_sr_pbe_standard/Si.psp8
- pspatm: opening atomic psp file    ../../../pseudos/pseudo-dojo_nc_sr_pbe_standard/Si.psp8
- Si    ONCVPSP-3.2.3.1  r_core=   1.60303   1.72197   1.91712
- 14.00000   4.00000    170510                znucl, zion, pspdat
    8   11    2    4       600   0.00000      pspcod,pspxc,lmax,lloc,mmax,r2well
    5.99000000000000    4.00000000000000    0.00000000000000   rchrg,fchrg,qchrg
     nproj     2     2     2
     extension_switch     1
  pspatm : epsatm=    9.34321699
         --- l  ekb(1:nproj) -->
             0    5.168965    0.829883
             1    2.571282    0.578307
             2   -2.427311   -0.488097
 pspatm: atomic psp has been read  and splines computed

   1.49491472E+02                                ecore*ucvol(ha*bohr**3)
--------------------------------------------------------------------------------

_setup2: Arith. and geom. avg. npw (full set) are     605.656     605.641

================================================================================

=== [ionmov= 2] Broyden-Fletcher-Goldfard-Shanno method (forces)            
================================================================================

--- Iteration: ( 1/10) Internal Cycle: (1/1)
--------------------------------------------------------------------------------

---SELF-CONSISTENT-FIELD CONVERGENCE--------------------------------------------

--- !BeginCycle
iteration_state: {dtset: 1, itime: 1, icycle: 1, }
solver: {iscf: 7, nstep: 10, nline: 4, wfoptalg: 0, }
tolerances: {toldfe: 1.00E-06, }
...

     iter   Etot(hartree)      deltaE(h)  residm     vres2
 ETOT  1  -8.4570377854124    -8.457E+00 6.981E-03 3.676E+00
 ETOT  2  -8.4612370893741    -4.199E-03 1.100E-04 5.773E-02
 ETOT  3  -8.4612625241015    -2.543E-05 4.843E-05 7.516E-04
 ETOT  4  -8.4612627028420    -1.787E-07 2.705E-06 3.068E-05
 ETOT  5  -8.4612627091528    -6.311E-09 2.425E-06 3.240E-07

 At SCF step    5, etot is converged : 
  for the second time, diff in etot=  6.311E-09 < toldfe=  1.000E-06

 Cartesian components of stress tensor (hartree/bohr^3)
  sigma(1 1)= -1.51396804E-04  sigma(3 2)=  0.00000000E+00
  sigma(2 2)= -1.51396804E-04  sigma(3 1)=  0.00000000E+00
  sigma(3 3)= -1.51396804E-04  sigma(2 1)=  0.00000000E+00


--- !ResultsGS
iteration_state: {dtset: 1, itime: 1, icycle: 1, }
comment   : Summary of ground state results
lattice_vectors:
- [  0.0000000,   5.0900000,   5.0900000, ]
- [  5.0900000,   0.0000000,   5.0900000, ]
- [  5.0900000,   5.0900000,   0.0000000, ]
lattice_lengths: [   7.19835,    7.19835,    7.19835, ]
lattice_angles: [ 60.000,  60.000,  60.000, ] # degrees, (23, 13, 12)
lattice_volume:   2.6374446E+02
convergence: {deltae: -6.311E-09, res2:  3.240E-07, residm:  2.425E-06, diffor: null, }
etotal    :  -8.46126271E+00
entropy   :   0.00000000E+00
fermie    :   1.56707925E-01
cartesian_stress_tensor: # hartree/bohr^3
- [ -1.51396804E-04,   0.00000000E+00,   0.00000000E+00, ]
- [  0.00000000E+00,  -1.51396804E-04,   0.00000000E+00, ]
- [  0.00000000E+00,   0.00000000E+00,  -1.51396804E-04, ]
pressure_GPa:   4.4542E+00
xred      :
- [  0.0000E+00,   0.0000E+00,   0.0000E+00, Si]
- [  2.5000E-01,   2.5000E-01,   2.5000E-01, Si]
cartesian_forces: # hartree/bohr
- [  5.29006920E-29,  -1.05801384E-28,  -5.29006920E-29, ]
- [ -5.29006920E-29,   1.05801384E-28,   5.29006920E-29, ]
force_length_stats: {min:   1.29579702E-28, max:   1.29579702E-28, mean:   1.29579702E-28, }
...

 Integrated electronic density in atomic spheres:
 ------------------------------------------------
 Atom  Sphere_radius  Integrated_density
    1        2.00000          1.78534961
    2        2.00000          1.78534961

---OUTPUT-----------------------------------------------------------------------

 Cartesian coordinates (xcart) [bohr]
  0.00000000000000E+00  0.00000000000000E+00  0.00000000000000E+00
  2.54500000000000E+00  2.54500000000000E+00  2.54500000000000E+00
 Reduced coordinates (xred)
  0.00000000000000E+00  0.00000000000000E+00  0.00000000000000E+00
  2.50000000000000E-01  2.50000000000000E-01  2.50000000000000E-01
 Cartesian forces (fcart) [Ha/bohr]; max,rms= 1.05801E-28 7.48129E-29 (free atoms)
  5.29006920069624E-29 -1.05801384013925E-28 -5.29006920069624E-29
 -5.29006920069624E-29  1.05801384013925E-28  5.29006920069624E-29
 Gradient of E wrt nuclear positions in reduced coordinates (gred)
  8.07793566946316E-28 -0.00000000000000E+00  2.69264522315439E-28
 -8.07793566946316E-28 -0.00000000000000E+00 -2.69264522315439E-28
 Scale of Primitive Cell (acell) [bohr]
  1.01800000000000E+01  1.01800000000000E+01  1.01800000000000E+01
 Real space primitive translations (rprimd) [bohr]
  0.00000000000000E+00  5.09000000000000E+00  5.09000000000000E+00
  5.09000000000000E+00  0.00000000000000E+00  5.09000000000000E+00
  5.09000000000000E+00  5.09000000000000E+00  0.00000000000000E+00
 Unitary Cell Volume (ucvol) [Bohr^3]=  2.63744458000000E+02
 Angles (23,13,12)= [degrees]
  6.00000000000000E+01  6.00000000000000E+01  6.00000000000000E+01
 Lengths [Bohr]
  7.19834703247905E+00  7.19834703247905E+00  7.19834703247905E+00
 Stress tensor in cartesian coordinates (strten) [Ha/bohr^3]
 -1.51396804175433E-04  0.00000000000000E+00  0.00000000000000E+00
  0.00000000000000E+00 -1.51396804175433E-04  0.00000000000000E+00
  0.00000000000000E+00  0.00000000000000E+00 -1.51396804175433E-04
 Total energy (etotal) [Ha]= -8.46126270915279E+00

--- Iteration: ( 2/10) Internal Cycle: (1/1)
--------------------------------------------------------------------------------

---SELF-CONSISTENT-FIELD CONVERGENCE--------------------------------------------

--- !BeginCycle
iteration_state: {dtset: 1, itime: 2, icycle: 1, }
solver: {iscf: 7, nstep: 10, nline: 4, wfoptalg: 0, }
tolerances: {toldfe: 1.00E-06, }
...

     iter   Etot(hartree)      deltaE(h)  residm     vres2
 ETOT  1  -8.4616959780929    -8.462E+00 3.265E-07 5.753E-02
 ETOT  2  -8.4617202539546    -2.428E-05 7.310E-08 3.318E-03
 ETOT  3  -8.4617211990176    -9.451E-07 5.535E-08 9.228E-05
 ETOT  4  -8.4617212148148    -1.580E-08 1.496E-08 3.569E-07

 At SCF step    4, etot is converged : 
  for the second time, diff in etot=  1.580E-08 < toldfe=  1.000E-06

 Cartesian components of stress tensor (hartree/bohr^3)
  sigma(1 1)= -1.03198038E-04  sigma(3 2)=  0.00000000E+00
  sigma(2 2)= -1.03198038E-04  sigma(3 1)=  0.00000000E+00
  sigma(3 3)= -1.03198038E-04  sigma(2 1)=  0.00000000E+00


--- !ResultsGS
iteration_state: {dtset: 1, itime: 2, icycle: 1, }
comment   : Summary of ground state results
lattice_vectors:
- [  0.0000000,   5.1131183,   5.1131183, ]
- [  5.1131183,   0.0000000,   5.1131183, ]
- [  5.1131183,   5.1131183,   0.0000000, ]
lattice_lengths: [   7.23104,    7.23104,    7.23104, ]
lattice_angles: [ 60.000,  60.000,  60.000, ] # degrees, (23, 13, 12)
lattice_volume:   2.6735451E+02
convergence: {deltae: -1.580E-08, res2:  3.569E-07, residm:  1.496E-08, diffor: null, }
etotal    :  -8.46172121E+00
entropy   :   0.00000000E+00
fermie    :   1.52483514E-01
cartesian_stress_tensor: # hartree/bohr^3
- [ -1.03198038E-04,   0.00000000E+00,   0.00000000E+00, ]
- [  0.00000000E+00,  -1.03198038E-04,   0.00000000E+00, ]
- [  0.00000000E+00,   0.00000000E+00,  -1.03198038E-04, ]
pressure_GPa:   3.0362E+00
xred      :
- [ -2.0786E-29,   1.0393E-29,  -1.4013E-45, Si]
- [  2.5000E-01,   2.5000E-01,   2.5000E-01, Si]
cartesian_forces: # hartree/bohr
- [ -4.21292068E-28,  -2.10646034E-28,   1.05323017E-27, ]
- [  4.21292068E-28,   2.10646034E-28,  -1.05323017E-27, ]
force_length_stats: {min:   1.15375584E-27, max:   1.15375584E-27, mean:   1.15375584E-27, }
...

 Integrated electronic density in atomic spheres:
 ------------------------------------------------
 Atom  Sphere_radius  Integrated_density
    1        2.00000          1.79711153
    2        2.00000          1.79711153

---OUTPUT-----------------------------------------------------------------------

 Cartesian coordinates (xcart) [bohr]
  5.31409618782181E-29 -1.06281923756436E-28 -5.31409618782181E-29
  2.55655914599879E+00  2.55655914599879E+00  2.55655914599879E+00
 Reduced coordinates (xred)
 -2.07861265253290E-29  1.03930632626645E-29 -1.40129846432482E-45
  2.50000000000000E-01  2.50000000000000E-01  2.50000000000000E-01
 Cartesian forces (fcart) [Ha/bohr]; max,rms= 1.05323E-27 6.66121E-28 (free atoms)
 -4.21292067874679E-28 -2.10646033937339E-28  1.05323016968670E-27
  4.21292067874679E-28  2.10646033937339E-28 -1.05323016968670E-27
 Gradient of E wrt nuclear positions in reduced coordinates (gred)
 -4.30823235704702E-27 -3.23117426778526E-27  3.23117426778526E-27
  4.30823235704702E-27  3.23117426778526E-27 -3.23117426778526E-27
 Scale of Primitive Cell (acell) [bohr]
  1.02262365839952E+01  1.02262365839952E+01  1.02262365839952E+01
 Real space primitive translations (rprimd) [bohr]
  0.00000000000000E+00  5.11311829199759E+00  5.11311829199759E+00
  5.11311829199759E+00  0.00000000000000E+00  5.11311829199759E+00
  5.11311829199759E+00  5.11311829199759E+00  0.00000000000000E+00
 Unitary Cell Volume (ucvol) [Bohr^3]=  2.67354511105486E+02
 Angles (23,13,12)= [degrees]
  6.00000000000000E+01  6.00000000000000E+01  6.00000000000000E+01
 Lengths [Bohr]
  7.23104123456095E+00  7.23104123456095E+00  7.23104123456095E+00
 Stress tensor in cartesian coordinates (strten) [Ha/bohr^3]
 -1.03198038485342E-04  0.00000000000000E+00  0.00000000000000E+00
  0.00000000000000E+00 -1.03198038485343E-04  0.00000000000000E+00
  0.00000000000000E+00  0.00000000000000E+00 -1.03198038485343E-04
 Total energy (etotal) [Ha]= -8.46172121481481E+00

 Difference of energy with previous step (new-old):
           Absolute (Ha)=-4.58506E-04
           Relative     =-5.41873E-05

--- Iteration: ( 3/10) Internal Cycle: (1/1)
--------------------------------------------------------------------------------

---SELF-CONSISTENT-FIELD CONVERGENCE--------------------------------------------

--- !BeginCycle
iteration_state: {dtset: 1, itime: 3, icycle: 1, }
solver: {iscf: 7, nstep: 10, nline: 4, wfoptalg: 0, }
tolerances: {toldfe: 1.00E-06, }
...

     iter   Etot(hartree)      deltaE(h)  residm     vres2
 ETOT  1  -8.4620285139363    -8.462E+00 1.717E-06 2.899E-01
 ETOT  2  -8.4621521640576    -1.237E-04 3.473E-07 1.766E-02
 ETOT  3  -8.4621572711599    -5.107E-06 3.417E-07 5.050E-04
 ETOT  4  -8.4621573579434    -8.678E-08 7.893E-08 1.988E-06
 ETOT  5  -8.4621573582186    -2.752E-10 8.103E-09 1.330E-08

 At SCF step    5, etot is converged : 
  for the second time, diff in etot=  2.752E-10 < toldfe=  1.000E-06

 Cartesian components of stress tensor (hartree/bohr^3)
  sigma(1 1)= -5.73566306E-06  sigma(3 2)=  0.00000000E+00
  sigma(2 2)= -5.73566306E-06  sigma(3 1)=  0.00000000E+00
  sigma(3 3)= -5.73566306E-06  sigma(2 1)=  0.00000000E+00


--- !ResultsGS
iteration_state: {dtset: 1, itime: 3, icycle: 1, }
comment   : Summary of ground state results
lattice_vectors:
- [  0.0000000,   5.1648091,   5.1648091, ]
- [  5.1648091,   0.0000000,   5.1648091, ]
- [  5.1648091,   5.1648091,   0.0000000, ]
lattice_lengths: [   7.30414,    7.30414,    7.30414, ]
lattice_angles: [ 60.000,  60.000,  60.000, ] # degrees, (23, 13, 12)
lattice_volume:   2.7554518E+02
convergence: {deltae: -2.752E-10, res2:  1.330E-08, residm:  8.103E-09, diffor: null, }
etotal    :  -8.46215736E+00
entropy   :   0.00000000E+00
fermie    :   1.43324594E-01
cartesian_stress_tensor: # hartree/bohr^3
- [ -5.73566306E-06,   0.00000000E+00,   0.00000000E+00, ]
- [  0.00000000E+00,  -5.73566306E-06,   0.00000000E+00, ]
- [  0.00000000E+00,   0.00000000E+00,  -5.73566306E-06, ]
pressure_GPa:   1.6875E-01
xred      :
- [  3.8279E-28,   2.7944E-28,  -5.3810E-28, Si]
- [  2.5000E-01,   2.5000E-01,   2.5000E-01, Si]
cartesian_forces: # hartree/bohr
- [ -0.00000000E+00,  -0.00000000E+00,  -0.00000000E+00, ]
- [ -0.00000000E+00,  -0.00000000E+00,  -0.00000000E+00, ]
force_length_stats: {min:   0.00000000E+00, max:   0.00000000E+00, mean:   0.00000000E+00, }
...

 Integrated electronic density in atomic spheres:
 ------------------------------------------------
 Atom  Sphere_radius  Integrated_density
    1        2.00000          1.79658968
    2        2.00000          1.79658968

---OUTPUT-----------------------------------------------------------------------

 Cartesian coordinates (xcart) [bohr]
 -1.33591141787605E-27 -8.02151178404235E-28  3.42029582636986E-27
  2.58240455339641E+00  2.58240455339641E+00  2.58240455339641E+00
 Reduced coordinates (xred)
  3.82788209988366E-28  2.79442620938461E-28 -5.38099115351594E-28
  2.50000000000000E-01  2.50000000000000E-01  2.50000000000000E-01
 Cartesian forces (fcart) [Ha/bohr]; max,rms= 0.00000E+00 0.00000E+00 (free atoms)
 -0.00000000000000E+00 -0.00000000000000E+00 -0.00000000000000E+00
 -0.00000000000000E+00 -0.00000000000000E+00 -0.00000000000000E+00
 Gradient of E wrt nuclear positions in reduced coordinates (gred)
  0.00000000000000E+00  0.00000000000000E+00  0.00000000000000E+00
  0.00000000000000E+00  0.00000000000000E+00  0.00000000000000E+00
 Scale of Primitive Cell (acell) [bohr]
  1.03296182135856E+01  1.03296182135856E+01  1.03296182135856E+01
 Real space primitive translations (rprimd) [bohr]
  0.00000000000000E+00  5.16480910679282E+00  5.16480910679282E+00
  5.16480910679282E+00  0.00000000000000E+00  5.16480910679282E+00
  5.16480910679282E+00  5.16480910679282E+00  0.00000000000000E+00
 Unitary Cell Volume (ucvol) [Bohr^3]=  2.75545180373035E+02
 Angles (23,13,12)= [degrees]
  6.00000000000000E+01  6.00000000000000E+01  6.00000000000000E+01
 Lengths [Bohr]
  7.30414308589448E+00  7.30414308589448E+00  7.30414308589448E+00
 Stress tensor in cartesian coordinates (strten) [Ha/bohr^3]
 -5.73566306459215E-06  0.00000000000000E+00  0.00000000000000E+00
  0.00000000000000E+00 -5.73566306459215E-06  0.00000000000000E+00
  0.00000000000000E+00  0.00000000000000E+00 -5.73566306459302E-06
 Total energy (etotal) [Ha]= -8.46215735821865E+00

 Difference of energy with previous step (new-old):
           Absolute (Ha)=-4.36143E-04
           Relative     =-5.15418E-05

--- Iteration: ( 4/10) Internal Cycle: (1/1)
--------------------------------------------------------------------------------

---SELF-CONSISTENT-FIELD CONVERGENCE--------------------------------------------

--- !BeginCycle
iteration_state: {dtset: 1, itime: 4, icycle: 1, }
solver: {iscf: 7, nstep: 10, nline: 4, wfoptalg: 0, }
tolerances: {toldfe: 1.00E-06, }
...

     iter   Etot(hartree)      deltaE(h)  residm     vres2
 ETOT  1  -8.4621583830188    -8.462E+00 8.994E-09 1.061E-03
 ETOT  2  -8.4621588339503    -4.509E-07 1.459E-09 6.571E-05
 ETOT  3  -8.4621588530332    -1.908E-08 1.326E-09 1.854E-06

 At SCF step    3, etot is converged : 
  for the second time, diff in etot=  1.908E-08 < toldfe=  1.000E-06

 Cartesian components of stress tensor (hartree/bohr^3)
  sigma(1 1)= -1.90380256E-07  sigma(3 2)=  0.00000000E+00
  sigma(2 2)= -1.90380256E-07  sigma(3 1)=  0.00000000E+00
  sigma(3 3)= -1.90380256E-07  sigma(2 1)=  0.00000000E+00


--- !ResultsGS
iteration_state: {dtset: 1, itime: 4, icycle: 1, }
comment   : Summary of ground state results
lattice_vectors:
- [  0.0000000,   5.1679500,   5.1679500, ]
- [  5.1679500,   0.0000000,   5.1679500, ]
- [  5.1679500,   5.1679500,   0.0000000, ]
lattice_lengths: [   7.30858,    7.30858,    7.30858, ]
lattice_angles: [ 60.000,  60.000,  60.000, ] # degrees, (23, 13, 12)
lattice_volume:   2.7604819E+02
convergence: {deltae: -1.908E-08, res2:  1.854E-06, residm:  1.326E-09, diffor: null, }
etotal    :  -8.46215885E+00
entropy   :   0.00000000E+00
fermie    :   1.42774681E-01
cartesian_stress_tensor: # hartree/bohr^3
- [ -1.90380256E-07,   0.00000000E+00,   0.00000000E+00, ]
- [  0.00000000E+00,  -1.90380256E-07,   0.00000000E+00, ]
- [  0.00000000E+00,   0.00000000E+00,  -1.90380256E-07, ]
pressure_GPa:   5.6012E-03
xred      :
- [  3.9973E-28,   2.9074E-28,  -5.6069E-28, Si]
- [  2.5000E-01,   2.5000E-01,   2.5000E-01, Si]
cartesian_forces: # hartree/bohr
- [  0.00000000E+00,  -0.00000000E+00,   2.08411091E-28, ]
- [  0.00000000E+00,  -0.00000000E+00,  -2.08411091E-28, ]
force_length_stats: {min:   2.08411091E-28, max:   2.08411091E-28, mean:   2.08411091E-28, }
...

 Integrated electronic density in atomic spheres:
 ------------------------------------------------
 Atom  Sphere_radius  Integrated_density
    1        2.00000          1.79818626
    2        2.00000          1.79818626

---OUTPUT-----------------------------------------------------------------------

 Cartesian coordinates (xcart) [bohr]
 -1.39510127544906E-27 -8.31827715166939E-28  3.56831943508810E-27
  2.58397498502252E+00  2.58397498502252E+00  2.58397498502252E+00
 Reduced coordinates (xred)
  3.99732294170624E-28  2.90738677059967E-28 -5.60691227594604E-28
  2.50000000000000E-01  2.50000000000000E-01  2.50000000000000E-01
 Cartesian forces (fcart) [Ha/bohr]; max,rms= 2.08411E-28 1.20326E-28 (free atoms)
  0.00000000000000E+00 -0.00000000000000E+00  2.08411090568736E-28
  0.00000000000000E+00 -0.00000000000000E+00 -2.08411090568736E-28
 Gradient of E wrt nuclear positions in reduced coordinates (gred)
 -1.07705808926175E-27 -1.07705808926175E-27 -0.00000000000000E+00
  1.07705808926175E-27  1.07705808926175E-27 -0.00000000000000E+00
 Scale of Primitive Cell (acell) [bohr]
  1.03358999400901E+01  1.03358999400901E+01  1.03358999400901E+01
 Real space primitive translations (rprimd) [bohr]
  0.00000000000000E+00  5.16794997004505E+00  5.16794997004505E+00
  5.16794997004505E+00  0.00000000000000E+00  5.16794997004505E+00
  5.16794997004505E+00  5.16794997004505E+00  0.00000000000000E+00
 Unitary Cell Volume (ucvol) [Bohr^3]=  2.76048186074151E+02
 Angles (23,13,12)= [degrees]
  6.00000000000000E+01  6.00000000000000E+01  6.00000000000000E+01
 Lengths [Bohr]
  7.30858493730333E+00  7.30858493730333E+00  7.30858493730333E+00
 Stress tensor in cartesian coordinates (strten) [Ha/bohr^3]
 -1.90380255542938E-07  0.00000000000000E+00  0.00000000000000E+00
  0.00000000000000E+00 -1.90380255542938E-07  0.00000000000000E+00
  0.00000000000000E+00  0.00000000000000E+00 -1.90380255543805E-07
 Total energy (etotal) [Ha]= -8.46215885303316E+00

 Difference of energy with previous step (new-old):
           Absolute (Ha)=-1.49481E-06
           Relative     =-1.76647E-07

 At Broyd/MD step   4, gradients are converged : 
  max grad (force/stress) = 1.9038E-05 < tolmxf= 5.0000E-05 ha/bohr (free atoms)

================================================================================

 ----iterations are completed or convergence reached----

 Mean square residual over all n,k,spin=   16.094E-11; max=  13.257E-10
 reduced coordinates (array xred) for    2 atoms
       0.000000000000      0.000000000000     -0.000000000000
       0.250000000000      0.250000000000      0.250000000000
 rms dE/dt=  3.9329E-27; max dE/dt=  6.4623E-27; dE/dt below (all hartree)
    1       0.000000000000      0.000000000000     -0.000000000000
    2       0.000000000000      0.000000000000     -0.000000000000

 cartesian coordinates (angstrom) at end:
    1     -0.00000000000000    -0.00000000000000     0.00000000000000
    2      1.36738066964061     1.36738066964061     1.36738066964061

 cartesian forces (hartree/bohr) at end:
    1      0.00000000000000    -0.00000000000000     0.00000000000000
    2      0.00000000000000    -0.00000000000000    -0.00000000000000
 frms,max,avg= 1.2032620E-28 2.0841109E-28   0.000E+00  0.000E+00  0.000E+00 h/b

 cartesian forces (eV/Angstrom) at end:
    1      0.00000000000000    -0.00000000000000     0.00000000000000
    2      0.00000000000000    -0.00000000000000    -0.00000000000000
 frms,max,avg= 6.1874214E-27 1.0716928E-26   0.000E+00  0.000E+00  0.000E+00 e/A
 length scales= 10.335899940090 10.335899940090 10.335899940090 bohr
              =  5.469522678562  5.469522678562  5.469522678562 angstroms
 prteigrs : about to open file ./outdata/rlx_EIG
 Fermi (or HOMO) energy (hartree) =   0.14277   Average Vxc (hartree)=  -0.33843
 Eigenvalues (hartree) for nkpt=  10  k points:
 kpt#   1, nband=  5, wtk=  0.09375, kpt= -0.1250 -0.2500  0.0000 (reduced coord)
  -0.25448    0.03508    0.10568    0.10800    0.23194
 prteigrs : prtvol=0 or 1, do not print more k-points.


--- !EnergyTerms
iteration_state     : {dtset: 1, itime: 4, icycle: 1, }
comment             : Components of total free energy in Hartree
kinetic             :  3.04159197290559E+00
hartree             :  5.57093272223421E-01
xc                  : -3.07996853688794E+00
Ewald energy        : -8.33877738811761E+00
psp_core            :  5.41541221334984E-01
local_psp           : -2.33188209613425E+00
non_local_psp       :  1.14824270164265E+00
total_energy        : -8.46215885303316E+00
total_energy_eV     : -2.30267052834183E+02
band_energy         : -2.46634949357641E-01
...


 Cartesian components of stress tensor (hartree/bohr^3)
  sigma(1 1)= -1.90380256E-07  sigma(3 2)=  0.00000000E+00
  sigma(2 2)= -1.90380256E-07  sigma(3 1)=  0.00000000E+00
  sigma(3 3)= -1.90380256E-07  sigma(2 1)=  0.00000000E+00

-Cartesian components of stress tensor (GPa)         [Pressure=  5.6012E-03 GPa]
- sigma(1 1)= -5.60117956E-03  sigma(3 2)=  0.00000000E+00
- sigma(2 2)= -5.60117956E-03  sigma(3 1)=  0.00000000E+00
- sigma(3 3)= -5.60117956E-03  sigma(2 1)=  0.00000000E+00

== END DATASET(S) ==============================================================
================================================================================
  
 -outvars: echo values of variables after computation  --------
            acell      1.0335899940E+01  1.0335899940E+01  1.0335899940E+01 Bohr
              amu      2.80855000E+01
           diemac      1.20000000E+01
          dilatmx      1.05000000E+00
             ecut      1.20000000E+01 Hartree
           ecutsm      5.00000000E-01 Hartree
           etotal     -8.4621588530E+00
            fcart      0.0000000000E+00 -0.0000000000E+00  2.0841109057E-28
                       0.0000000000E+00 -0.0000000000E+00 -2.0841109057E-28
-          fftalg         312
           getwfk          -1
           ionmov           2
              ixc          11
              kpt     -1.25000000E-01 -2.50000000E-01  0.00000000E+00
                      -1.25000000E-01  5.00000000E-01  0.00000000E+00
                      -2.50000000E-01 -3.75000000E-01  0.00000000E+00
                      -1.25000000E-01 -3.75000000E-01  1.25000000E-01
                      -1.25000000E-01  2.50000000E-01  0.00000000E+00
                      -2.50000000E-01  3.75000000E-01  0.00000000E+00
                      -3.75000000E-01  5.00000000E-01  0.00000000E+00
                      -2.50000000E-01  5.00000000E-01  1.25000000E-01
                      -1.25000000E-01  0.00000000E+00  0.00000000E+00
                      -3.75000000E-01  0.00000000E+00  0.00000000E+00
         kptrlatt        4   -4    4     -4    4    4     -4   -4    4
          kptrlen      4.07200000E+01
P           mkmem          10
            natom           2
            nband           5
            ngfft          24      24      24
             nkpt          10
            nstep          10
             nsym          48
            ntime          10
           ntypat           1
              occ      2.000000  2.000000  2.000000  2.000000  0.000000
          optcell           1
            rprim      0.0000000000E+00  5.0000000000E-01  5.0000000000E-01
                       5.0000000000E-01  0.0000000000E+00  5.0000000000E-01
                       5.0000000000E-01  5.0000000000E-01  0.0000000000E+00
           shiftk      5.00000000E-01  5.00000000E-01  5.00000000E-01
          spgroup         227
           strten     -1.9038025554E-07 -1.9038025554E-07 -1.9038025554E-07
                       0.0000000000E+00  0.0000000000E+00  0.0000000000E+00
           symrel      1  0  0   0  1  0   0  0  1      -1  0  0   0 -1  0   0  0 -1
                       0 -1  1   0 -1  0   1 -1  0       0  1 -1   0  1  0  -1  1  0
                      -1  0  0  -1  0  1  -1  1  0       1  0  0   1  0 -1   1 -1  0
                       0  1 -1   1  0 -1   0  0 -1       0 -1  1  -1  0  1   0  0  1
                      -1  0  0  -1  1  0  -1  0  1       1  0  0   1 -1  0   1  0 -1
                       0 -1  1   1 -1  0   0 -1  0       0  1 -1  -1  1  0   0  1  0
                       1  0  0   0  0  1   0  1  0      -1  0  0   0  0 -1   0 -1  0
                       0  1 -1   0  0 -1   1  0 -1       0 -1  1   0  0  1  -1  0  1
                      -1  0  1  -1  1  0  -1  0  0       1  0 -1   1 -1  0   1  0  0
                       0 -1  0   1 -1  0   0 -1  1       0  1  0  -1  1  0   0  1 -1
                       1  0 -1   0  0 -1   0  1 -1      -1  0  1   0  0  1   0 -1  1
                       0  1  0   0  0  1   1  0  0       0 -1  0   0  0 -1  -1  0  0
                       1  0 -1   0  1 -1   0  0 -1      -1  0  1   0 -1  1   0  0  1
                       0 -1  0   0 -1  1   1 -1  0       0  1  0   0  1 -1  -1  1  0
                      -1  0  1  -1  0  0  -1  1  0       1  0 -1   1  0  0   1 -1  0
                       0  1  0   1  0  0   0  0  1       0 -1  0  -1  0  0   0  0 -1
                       0  0 -1   0  1 -1   1  0 -1       0  0  1   0 -1  1  -1  0  1
                       1 -1  0   0 -1  1   0 -1  0      -1  1  0   0  1 -1   0  1  0
                       0  0  1   1  0  0   0  1  0       0  0 -1  -1  0  0   0 -1  0
                      -1  1  0  -1  0  0  -1  0  1       1 -1  0   1  0  0   1  0 -1
                       0  0  1   0  1  0   1  0  0       0  0 -1   0 -1  0  -1  0  0
                       1 -1  0   0 -1  0   0 -1  1      -1  1  0   0  1  0   0  1 -1
                       0  0 -1   1  0 -1   0  1 -1       0  0  1  -1  0  1   0 -1  1
                      -1  1  0  -1  0  1  -1  0  0       1 -1  0   1  0 -1   1  0  0
            tnons      0.0000000  0.0000000  0.0000000     0.2500000  0.2500000  0.2500000
                       0.0000000  0.0000000  0.0000000     0.2500000  0.2500000  0.2500000
                       0.0000000  0.0000000  0.0000000     0.2500000  0.2500000  0.2500000
                       0.0000000  0.0000000  0.0000000     0.2500000  0.2500000  0.2500000
                       0.0000000  0.0000000  0.0000000     0.2500000  0.2500000  0.2500000
                       0.0000000  0.0000000  0.0000000     0.2500000  0.2500000  0.2500000
                       0.0000000  0.0000000  0.0000000     0.2500000  0.2500000  0.2500000
                       0.0000000  0.0000000  0.0000000     0.2500000  0.2500000  0.2500000
                       0.0000000  0.0000000  0.0000000     0.2500000  0.2500000  0.2500000
                       0.0000000  0.0000000  0.0000000     0.2500000  0.2500000  0.2500000
                       0.0000000  0.0000000  0.0000000     0.2500000  0.2500000  0.2500000
                       0.0000000  0.0000000  0.0000000     0.2500000  0.2500000  0.2500000
                       0.0000000  0.0000000  0.0000000     0.2500000  0.2500000  0.2500000
                       0.0000000  0.0000000  0.0000000     0.2500000  0.2500000  0.2500000
                       0.0000000  0.0000000  0.0000000     0.2500000  0.2500000  0.2500000
                       0.0000000  0.0000000  0.0000000     0.2500000  0.2500000  0.2500000
                       0.0000000  0.0000000  0.0000000     0.2500000  0.2500000  0.2500000
                       0.0000000  0.0000000  0.0000000     0.2500000  0.2500000  0.2500000
                       0.0000000  0.0000000  0.0000000     0.2500000  0.2500000  0.2500000
                       0.0000000  0.0000000  0.0000000     0.2500000  0.2500000  0.2500000
                       0.0000000  0.0000000  0.0000000     0.2500000  0.2500000  0.2500000
                       0.0000000  0.0000000  0.0000000     0.2500000  0.2500000  0.2500000
                       0.0000000  0.0000000  0.0000000     0.2500000  0.2500000  0.2500000
                       0.0000000  0.0000000  0.0000000     0.2500000  0.2500000  0.2500000
           toldfe      1.00000000E-06 Hartree
            typat      1  1
              wtk        0.09375    0.09375    0.09375    0.18750    0.09375    0.09375
                         0.09375    0.18750    0.03125    0.03125
           xangst     -7.3825579864E-28 -4.4018426834E-28  1.8882733180E-27
                       1.3673806696E+00  1.3673806696E+00  1.3673806696E+00
            xcart     -1.3951012754E-27 -8.3182771517E-28  3.5683194351E-27
                       2.5839749850E+00  2.5839749850E+00  2.5839749850E+00
             xred      3.9973229417E-28  2.9073867706E-28 -5.6069122759E-28
                       2.5000000000E-01  2.5000000000E-01  2.5000000000E-01
            znucl       14.00000

================================================================================


- Timing analysis has been suppressed with timopt=0



================================================================================

 Suggested references for the acknowledgment of ABINIT usage.

 The users of ABINIT have little formal obligations with respect to the ABINIT group
 (those specified in the GNU General Public License, http://www.gnu.org/copyleft/gpl.txt).
 However, it is common practice in the scientific literature,
 to acknowledge the efforts of people that have made the research possible.
 In this spirit, please find below suggested citations of work written by ABINIT developers,
 corresponding to implementations inside of ABINIT that you have used in the present run.
 Note also that it will be of great value to readers of publications presenting these results,
 to read papers enabling them to understand the theoretical formalism and details
 of the ABINIT implementation.
 For information on why they are suggested, see also https://docs.abinit.org/theory/acknowledgments.
-
- [1] The Abinit project: Impact, environment and recent developments.
- Computer Phys. Comm. 248, 107042 (2020).
- X.Gonze, B. Amadon, G. Antonius, F.Arnardi, L.Baguet, J.-M.Beuken,
- J.Bieder, F.Bottin, J.Bouchet, E.Bousquet, N.Brouwer, F.Bruneval,
- G.Brunin, T.Cavignac, J.-B. Charraud, Wei Chen, M.Cote, S.Cottenier,
- J.Denier, G.Geneste, Ph.Ghosez, M.Giantomassi, Y.Gillet, O.Gingras,
- D.R.Hamann, G.Hautier, Xu He, N.Helbig, N.Holzwarth, Y.Jia, F.Jollet,
- W.Lafargue-Dit-Hauret, K.Lejaeghere, M.A.L.Marques, A.Martin, C.Martins,
- H.P.C. Miranda, F.Naccarato, K. Persson, G.Petretto, V.Planes, Y.Pouillon,
- S.Prokhorenko, F.Ricci, G.-M.Rignanese, A.H.Romero, M.M.Schmitt, M.Torrent,
- M.J.van Setten, B.Van Troeye, M.J.Verstraete, G.Zerah and J.W.Zwanzig
- Comment: the fifth generic paper describing the ABINIT project.
- Note that a version of this paper, that is not formatted for Computer Phys. Comm. 
- is available at https://www.abinit.org/sites/default/files/ABINIT20.pdf .
- The licence allows the authors to put it on the Web.
- DOI and bibtex: see https://docs.abinit.org/theory/bibliography/#gonze2020
-
- [2] Optimized norm-conserving Vanderbilt pseudopotentials.
- D.R. Hamann, Phys. Rev. B 88, 085117 (2013).
- Comment: Some pseudopotential generated using the ONCVPSP code were used.
- DOI and bibtex: see https://docs.abinit.org/theory/bibliography/#hamann2013
-
- [3] ABINIT: Overview, and focus on selected capabilities
- J. Chem. Phys. 152, 124102 (2020).
- A. Romero, D.C. Allan, B. Amadon, G. Antonius, T. Applencourt, L.Baguet,
- J.Bieder, F.Bottin, J.Bouchet, E.Bousquet, F.Bruneval,
- G.Brunin, D.Caliste, M.Cote,
- J.Denier, C. Dreyer, Ph.Ghosez, M.Giantomassi, Y.Gillet, O.Gingras,
- D.R.Hamann, G.Hautier, F.Jollet, G. Jomard,
- A.Martin, 
- H.P.C. Miranda, F.Naccarato, G.Petretto, N.A. Pike, V.Planes,
- S.Prokhorenko, T. Rangel, F.Ricci, G.-M.Rignanese, M.Royo, M.Stengel, M.Torrent,
- M.J.van Setten, B.Van Troeye, M.J.Verstraete, J.Wiktor, J.W.Zwanziger, and X.Gonze.
- Comment: a global overview of ABINIT, with focus on selected capabilities .
- Note that a version of this paper, that is not formatted for J. Chem. Phys 
- is available at https://www.abinit.org/sites/default/files/ABINIT20_JPC.pdf .
- The licence allows the authors to put it on the Web.
- DOI and bibtex: see https://docs.abinit.org/theory/bibliography/#romero2020
-
- [4] Recent developments in the ABINIT software package.
- Computer Phys. Comm. 205, 106 (2016).
- X.Gonze, F.Jollet, F.Abreu Araujo, D.Adams, B.Amadon, T.Applencourt,
- C.Audouze, J.-M.Beuken, J.Bieder, A.Bokhanchuk, E.Bousquet, F.Bruneval
- D.Caliste, M.Cote, F.Dahm, F.Da Pieve, M.Delaveau, M.Di Gennaro,
- B.Dorado, C.Espejo, G.Geneste, L.Genovese, A.Gerossier, M.Giantomassi,
- Y.Gillet, D.R.Hamann, L.He, G.Jomard, J.Laflamme Janssen, S.Le Roux,
- A.Levitt, A.Lherbier, F.Liu, I.Lukacevic, A.Martin, C.Martins,
- M.J.T.Oliveira, S.Ponce, Y.Pouillon, T.Rangel, G.-M.Rignanese,
- A.H.Romero, B.Rousseau, O.Rubel, A.A.Shukri, M.Stankovski, M.Torrent,
- M.J.Van Setten, B.Van Troeye, M.J.Verstraete, D.Waroquier, J.Wiktor,
- B.Xu, A.Zhou, J.W.Zwanziger.
- Comment: the fourth generic paper describing the ABINIT project.
- Note that a version of this paper, that is not formatted for Computer Phys. Comm. 
- is available at https://www.abinit.org/sites/default/files/ABINIT16.pdf .
- The licence allows the authors to put it on the Web.
- DOI and bibtex: see https://docs.abinit.org/theory/bibliography/#gonze2016
-
- And optionally:
-
- [5] ABINIT: First-principles approach of materials and nanosystem properties.
- Computer Phys. Comm. 180, 2582-2615 (2009).
- X. Gonze, B. Amadon, P.-M. Anglade, J.-M. Beuken, F. Bottin, P. Boulanger, F. Bruneval,
- D. Caliste, R. Caracas, M. Cote, T. Deutsch, L. Genovese, Ph. Ghosez, M. Giantomassi
- S. Goedecker, D.R. Hamann, P. Hermet, F. Jollet, G. Jomard, S. Leroux, M. Mancini, S. Mazevet,
- M.J.T. Oliveira, G. Onida, Y. Pouillon, T. Rangel, G.-M. Rignanese, D. Sangalli, R. Shaltaf,
- M. Torrent, M.J. Verstraete, G. Zerah, J.W. Zwanziger
- Comment: the third generic paper describing the ABINIT project.
- Note that a version of this paper, that is not formatted for Computer Phys. Comm. 
- is available at https://www.abinit.org/sites/default/files/ABINIT_CPC_v10.pdf .
- The licence allows the authors to put it on the Web.
- DOI and bibtex: see https://docs.abinit.org/theory/bibliography/#gonze2009
-
- Proc.   0 individual time (sec): cpu=          2.0  wall=          2.1

================================================================================

 Calculation completed.
.Delivered   0 WARNINGs and   2 COMMENTs to log file.
+Overall time at end (sec) : cpu=          2.0  wall=          2.1
