
.Version 9.8.4 of ABINIT 
.(MPI version, prepared for a x86_64_linux_gnu12.3 computer) 

.Copyright (C) 1998-2022 ABINIT group . 
 ABINIT comes with ABSOLUTELY NO WARRANTY.
 It is free software, and you are welcome to redistribute it
 under certain conditions (GNU General Public License,
 see ~abinit/COPYING or http://www.gnu.org/copyleft/gpl.txt).

 ABINIT is a project of the Universite Catholique de Louvain,
 Corning Inc. and other collaborators, see ~abinit/doc/developers/contributors.txt .
 Please read https://docs.abinit.org/theory/acknowledgments for suggested
 acknowledgments of the ABINIT effort.
 For more information, see https://www.abinit.org .

.Starting date : Thu  4 Apr 2024.
- ( at 09h41 )
  
- input  file    -> ebnd.abi
- output file    -> ebnd.abo
- root for input  files -> ebndi
- root for output files -> ./outdata/ebnd


 DATASET    1 : space group Fd -3 m (#227); Bravais cF (face-center cubic)
================================================================================
 Values of the parameters that define the memory need for DATASET  1.
     intxc =       0    ionmov =       0      iscf =       7    lmnmax =       6
     lnmax =       6     mgfft =      24  mpssoang =       3    mqgrid =    3001
     natom =       2  nloc_mem =       1    nspden =       1   nspinor =       1
    nsppol =       1      nsym =      48    n1xccc =    2501    ntypat =       1
    occopt =       1   xclevel =       2
-    mband =           5        mffmem =           1         mkmem =          10
       mpw =         553          nfft =       13824          nkpt =          10
================================================================================
P This job should need less than                       5.658 Mbytes of memory.
  Rough estimation (10% accuracy) of disk space for files :
_ WF disk file :      0.424 Mbytes ; DEN or POT disk file :      0.107 Mbytes.
================================================================================


 DATASET    2 : space group Fd -3 m (#227); Bravais cF (face-center cubic)
================================================================================
 Values of the parameters that define the memory need for DATASET  2.
     intxc =       0    ionmov =       0      iscf =      -2    lmnmax =       6
     lnmax =       6     mgfft =      24  mpssoang =       3    mqgrid =    3001
     natom =       2  nloc_mem =       1    nspden =       1   nspinor =       1
    nsppol =       1      nsym =      48    n1xccc =    2501    ntypat =       1
    occopt =       1   xclevel =       2
-    mband =           8        mffmem =           1         mkmem =          99
       mpw =         560          nfft =       13824          nkpt =          99
================================================================================
P This job should need less than                      10.930 Mbytes of memory.
  Rough estimation (10% accuracy) of disk space for files :
_ WF disk file :      6.770 Mbytes ; DEN or POT disk file :      0.107 Mbytes.
================================================================================

--------------------------------------------------------------------------------
------------- Echo of variables that govern the present computation ------------
--------------------------------------------------------------------------------
-
- outvars: echo of selected default values                                      
-   iomode0 =  0 , fftalg0 =312 , wfoptalg0 =  0
-
- outvars: echo of global parameters not present in the input file              
-  max_nthreads =    0
-
 -outvars: echo values of preprocessed input variables --------
            acell      1.0336000000E+01  1.0336000000E+01  1.0336000000E+01 Bohr
              amu      2.80855000E+01
           diemac1     1.20000000E+01
           diemac2     1.00000000E+06
             ecut      1.20000000E+01 Hartree
           enunit1          0
           enunit2          1
-          fftalg         312
           getden1          0
           getden2         -1
             iscf1          7
             iscf2         -2
           istwfk2       2    0    0    0    0    0    0    0    0    0
                         0    0    0    0    0    0    0    0    0    0
                         5    0    0    0    0    0    0    0    0    0
                         0    0    0    0    0    0    0    0    0    0
                         0    0    0    0    9    0    0    0    0    0
                       outvar_i_n : Printing only first  50 k-points.
              ixc          11
           jdtset        1    2
              kpt1    -1.25000000E-01 -2.50000000E-01  0.00000000E+00
                      -1.25000000E-01  5.00000000E-01  0.00000000E+00
                      -2.50000000E-01 -3.75000000E-01  0.00000000E+00
                      -1.25000000E-01 -3.75000000E-01  1.25000000E-01
                      -1.25000000E-01  2.50000000E-01  0.00000000E+00
                      -2.50000000E-01  3.75000000E-01  0.00000000E+00
                      -3.75000000E-01  5.00000000E-01  0.00000000E+00
                      -2.50000000E-01  5.00000000E-01  1.25000000E-01
                      -1.25000000E-01  0.00000000E+00  0.00000000E+00
                      -3.75000000E-01  0.00000000E+00  0.00000000E+00
              kpt2     0.00000000E+00  0.00000000E+00  0.00000000E+00
                       2.50000000E-02  0.00000000E+00  2.50000000E-02
                       5.00000000E-02  0.00000000E+00  5.00000000E-02
                       7.50000000E-02  0.00000000E+00  7.50000000E-02
                       1.00000000E-01  0.00000000E+00  1.00000000E-01
                       1.25000000E-01  0.00000000E+00  1.25000000E-01
                       1.50000000E-01  0.00000000E+00  1.50000000E-01
                       1.75000000E-01  0.00000000E+00  1.75000000E-01
                       2.00000000E-01  0.00000000E+00  2.00000000E-01
                       2.25000000E-01  0.00000000E+00  2.25000000E-01
                       2.50000000E-01  0.00000000E+00  2.50000000E-01
                       2.75000000E-01  0.00000000E+00  2.75000000E-01
                       3.00000000E-01  0.00000000E+00  3.00000000E-01
                       3.25000000E-01  0.00000000E+00  3.25000000E-01
                       3.50000000E-01  0.00000000E+00  3.50000000E-01
                       3.75000000E-01  0.00000000E+00  3.75000000E-01
                       4.00000000E-01  0.00000000E+00  4.00000000E-01
                       4.25000000E-01  0.00000000E+00  4.25000000E-01
                       4.50000000E-01  0.00000000E+00  4.50000000E-01
                       4.75000000E-01  0.00000000E+00  4.75000000E-01
                       5.00000000E-01  0.00000000E+00  5.00000000E-01
                       5.00000000E-01  2.50000000E-02  5.25000000E-01
                       5.00000000E-01  5.00000000E-02  5.50000000E-01
                       5.00000000E-01  7.50000000E-02  5.75000000E-01
                       5.00000000E-01  1.00000000E-01  6.00000000E-01
                       5.00000000E-01  1.25000000E-01  6.25000000E-01
                       5.00000000E-01  1.50000000E-01  6.50000000E-01
                       5.00000000E-01  1.75000000E-01  6.75000000E-01
                       5.00000000E-01  2.00000000E-01  7.00000000E-01
                       5.00000000E-01  2.25000000E-01  7.25000000E-01
                       5.00000000E-01  2.50000000E-01  7.50000000E-01
                       5.00000000E-01  2.67857143E-01  7.32142857E-01
                       5.00000000E-01  2.85714286E-01  7.14285714E-01
                       5.00000000E-01  3.03571429E-01  6.96428571E-01
                       5.00000000E-01  3.21428571E-01  6.78571429E-01
                       5.00000000E-01  3.39285714E-01  6.60714286E-01
                       5.00000000E-01  3.57142857E-01  6.42857143E-01
                       5.00000000E-01  3.75000000E-01  6.25000000E-01
                       5.00000000E-01  3.92857143E-01  6.07142857E-01
                       5.00000000E-01  4.10714286E-01  5.89285714E-01
                       5.00000000E-01  4.28571429E-01  5.71428571E-01
                       5.00000000E-01  4.46428571E-01  5.53571429E-01
                       5.00000000E-01  4.64285714E-01  5.35714286E-01
                       5.00000000E-01  4.82142857E-01  5.17857143E-01
                       5.00000000E-01  5.00000000E-01  5.00000000E-01
                       4.70588235E-01  4.70588235E-01  4.70588235E-01
                       4.41176471E-01  4.41176471E-01  4.41176471E-01
                       4.11764706E-01  4.11764706E-01  4.11764706E-01
                       3.82352941E-01  3.82352941E-01  3.82352941E-01
                       3.52941176E-01  3.52941176E-01  3.52941176E-01
                       outvar_i_n : Printing only first  50 k-points.
           kptopt1          1
           kptopt2         -6
         kptrlatt        4   -4    4     -4    4    4     -4   -4    4
          kptrlen1     4.13440000E+01
          kptrlen2     3.00000000E+01
P           mkmem1         10
P           mkmem2         99
            natom           2
            nband1          5
            nband2          8
           nbdbuf1          0
           nbdbuf2          2
           ndtset           2
           ndivsm1          0
           ndivsm2         10
            ngfft          24      24      24
             nkpt1         10
             nkpt2         99
            nstep1         20
            nstep2         30
             nsym          48
           ntypat           1
              occ      2.000000  2.000000  2.000000  2.000000  0.000000
            rprim      0.0000000000E+00  5.0000000000E-01  5.0000000000E-01
                       5.0000000000E-01  0.0000000000E+00  5.0000000000E-01
                       5.0000000000E-01  5.0000000000E-01  0.0000000000E+00
           shiftk      5.00000000E-01  5.00000000E-01  5.00000000E-01
          spgroup         227
           symrel      1  0  0   0  1  0   0  0  1      -1  0  0   0 -1  0   0  0 -1
                       0 -1  1   0 -1  0   1 -1  0       0  1 -1   0  1  0  -1  1  0
                      -1  0  0  -1  0  1  -1  1  0       1  0  0   1  0 -1   1 -1  0
                       0  1 -1   1  0 -1   0  0 -1       0 -1  1  -1  0  1   0  0  1
                      -1  0  0  -1  1  0  -1  0  1       1  0  0   1 -1  0   1  0 -1
                       0 -1  1   1 -1  0   0 -1  0       0  1 -1  -1  1  0   0  1  0
                       1  0  0   0  0  1   0  1  0      -1  0  0   0  0 -1   0 -1  0
                       0  1 -1   0  0 -1   1  0 -1       0 -1  1   0  0  1  -1  0  1
                      -1  0  1  -1  1  0  -1  0  0       1  0 -1   1 -1  0   1  0  0
                       0 -1  0   1 -1  0   0 -1  1       0  1  0  -1  1  0   0  1 -1
                       1  0 -1   0  0 -1   0  1 -1      -1  0  1   0  0  1   0 -1  1
                       0  1  0   0  0  1   1  0  0       0 -1  0   0  0 -1  -1  0  0
                       1  0 -1   0  1 -1   0  0 -1      -1  0  1   0 -1  1   0  0  1
                       0 -1  0   0 -1  1   1 -1  0       0  1  0   0  1 -1  -1  1  0
                      -1  0  1  -1  0  0  -1  1  0       1  0 -1   1  0  0   1 -1  0
                       0  1  0   1  0  0   0  0  1       0 -1  0  -1  0  0   0  0 -1
                       0  0 -1   0  1 -1   1  0 -1       0  0  1   0 -1  1  -1  0  1
                       1 -1  0   0 -1  1   0 -1  0      -1  1  0   0  1 -1   0  1  0
                       0  0  1   1  0  0   0  1  0       0  0 -1  -1  0  0   0 -1  0
                      -1  1  0  -1  0  0  -1  0  1       1 -1  0   1  0  0   1  0 -1
                       0  0  1   0  1  0   1  0  0       0  0 -1   0 -1  0  -1  0  0
                       1 -1  0   0 -1  0   0 -1  1      -1  1  0   0  1  0   0  1 -1
                       0  0 -1   1  0 -1   0  1 -1       0  0  1  -1  0  1   0 -1  1
                      -1  1  0  -1  0  1  -1  0  0       1 -1  0   1  0 -1   1  0  0
            tnons      0.0000000  0.0000000  0.0000000     0.2500000  0.2500000  0.2500000
                       0.0000000  0.0000000  0.0000000     0.2500000  0.2500000  0.2500000
                       0.0000000  0.0000000  0.0000000     0.2500000  0.2500000  0.2500000
                       0.0000000  0.0000000  0.0000000     0.2500000  0.2500000  0.2500000
                       0.0000000  0.0000000  0.0000000     0.2500000  0.2500000  0.2500000
                       0.0000000  0.0000000  0.0000000     0.2500000  0.2500000  0.2500000
                       0.0000000  0.0000000  0.0000000     0.2500000  0.2500000  0.2500000
                       0.0000000  0.0000000  0.0000000     0.2500000  0.2500000  0.2500000
                       0.0000000  0.0000000  0.0000000     0.2500000  0.2500000  0.2500000
                       0.0000000  0.0000000  0.0000000     0.2500000  0.2500000  0.2500000
                       0.0000000  0.0000000  0.0000000     0.2500000  0.2500000  0.2500000
                       0.0000000  0.0000000  0.0000000     0.2500000  0.2500000  0.2500000
                       0.0000000  0.0000000  0.0000000     0.2500000  0.2500000  0.2500000
                       0.0000000  0.0000000  0.0000000     0.2500000  0.2500000  0.2500000
                       0.0000000  0.0000000  0.0000000     0.2500000  0.2500000  0.2500000
                       0.0000000  0.0000000  0.0000000     0.2500000  0.2500000  0.2500000
                       0.0000000  0.0000000  0.0000000     0.2500000  0.2500000  0.2500000
                       0.0000000  0.0000000  0.0000000     0.2500000  0.2500000  0.2500000
                       0.0000000  0.0000000  0.0000000     0.2500000  0.2500000  0.2500000
                       0.0000000  0.0000000  0.0000000     0.2500000  0.2500000  0.2500000
                       0.0000000  0.0000000  0.0000000     0.2500000  0.2500000  0.2500000
                       0.0000000  0.0000000  0.0000000     0.2500000  0.2500000  0.2500000
                       0.0000000  0.0000000  0.0000000     0.2500000  0.2500000  0.2500000
                       0.0000000  0.0000000  0.0000000     0.2500000  0.2500000  0.2500000
           toldfe1     1.00000000E-06 Hartree
           toldfe2     0.00000000E+00 Hartree
           tolwfr1     0.00000000E+00
           tolwfr2     1.00000000E-12
            typat      1  1
              wtk1       0.09375    0.09375    0.09375    0.18750    0.09375    0.09375
                         0.09375    0.18750    0.03125    0.03125
              wtk2       1.00000    1.00000    1.00000    1.00000    1.00000    1.00000
                         1.00000    1.00000    1.00000    1.00000    1.00000    1.00000
                         1.00000    1.00000    1.00000    1.00000    1.00000    1.00000
                         1.00000    1.00000    1.00000    1.00000    1.00000    1.00000
                         1.00000    1.00000    1.00000    1.00000    1.00000    1.00000
                         1.00000    1.00000    1.00000    1.00000    1.00000    1.00000
                         1.00000    1.00000    1.00000    1.00000    1.00000    1.00000
                         1.00000    1.00000    1.00000    1.00000    1.00000    1.00000
                         1.00000    1.00000
                       outvars : Printing only first  50 k-points.
           xangst      0.0000000000E+00  0.0000000000E+00  0.0000000000E+00
                       1.3673939070E+00  1.3673939070E+00  1.3673939070E+00
            xcart      0.0000000000E+00  0.0000000000E+00  0.0000000000E+00
                       2.5840000000E+00  2.5840000000E+00  2.5840000000E+00
             xred      0.0000000000E+00  0.0000000000E+00  0.0000000000E+00
                       2.5000000000E-01  2.5000000000E-01  2.5000000000E-01
            znucl       14.00000

================================================================================

 chkinp: Checking input parameters for consistency, jdtset=   1.

 chkinp: Checking input parameters for consistency, jdtset=   2.

================================================================================
== DATASET  1 ==================================================================
-   mpi_nproc: 1, omp_nthreads: -1 (-1 if OMP is not activated)


--- !DatasetInfo
iteration_state: {dtset: 1, }
dimensions: {natom: 2, nkpt: 10, mband: 5, nsppol: 1, nspinor: 1, nspden: 1, mpw: 553, }
cutoff_energies: {ecut:  12.0, pawecutdg:  -1.0, }
electrons: {nelect:   8.00000000E+00, charge:   0.00000000E+00, occopt:   1.00000000E+00, tsmear:   1.00000000E-02, }
meta: {optdriver: 0, ionmov: 0, optcell: 0, iscf: 7, paral_kgb: 0, }
...

 Exchange-correlation functional for the present dataset will be:
  GGA: Perdew-Burke-Ernzerhof functional - ixc=11
 Citation for XC functional:
  J.P.Perdew, K.Burke, M.Ernzerhof, PRL 77, 3865 (1996)

 Real(R)+Recip(G) space primitive vectors, cartesian coordinates (Bohr,Bohr^-1):
 R(1)=  0.0000000  5.1680000  5.1680000  G(1)= -0.0967492  0.0967492  0.0967492
 R(2)=  5.1680000  0.0000000  5.1680000  G(2)=  0.0967492 -0.0967492  0.0967492
 R(3)=  5.1680000  5.1680000  0.0000000  G(3)=  0.0967492  0.0967492 -0.0967492
 Unit cell volume ucvol=  2.7605620E+02 bohr^3
 Angles (23,13,12)=  6.00000000E+01  6.00000000E+01  6.00000000E+01 degrees

 getcut: wavevector=  0.0000  0.0000  0.0000  ngfft=  24  24  24
         ecut(hartree)=     12.000   => boxcut(ratio)=   2.10580

--- Pseudopotential description ------------------------------------------------
- pspini: atom type   1  psp file is ../../../pseudos/pseudo-dojo_nc_sr_pbe_standard/Si.psp8
- pspatm: opening atomic psp file    ../../../pseudos/pseudo-dojo_nc_sr_pbe_standard/Si.psp8
- Si    ONCVPSP-3.2.3.1  r_core=   1.60303   1.72197   1.91712
- 14.00000   4.00000    170510                znucl, zion, pspdat
    8   11    2    4       600   0.00000      pspcod,pspxc,lmax,lloc,mmax,r2well
    5.99000000000000    4.00000000000000    0.00000000000000   rchrg,fchrg,qchrg
     nproj     2     2     2
     extension_switch     1
  pspatm : epsatm=    9.34321699
         --- l  ekb(1:nproj) -->
             0    5.168965    0.829883
             1    2.571282    0.578307
             2   -2.427311   -0.488097
 pspatm: atomic psp has been read  and splines computed

   1.49491472E+02                                ecore*ucvol(ha*bohr**3)
--------------------------------------------------------------------------------

_setup2: Arith. and geom. avg. npw (full set) are     548.469     548.462

================================================================================

--- !BeginCycle
iteration_state: {dtset: 1, }
solver: {iscf: 7, nstep: 20, nline: 4, wfoptalg: 0, }
tolerances: {toldfe: 1.00E-06, }
...

     iter   Etot(hartree)      deltaE(h)  residm     vres2
 ETOT  1  -8.4575910766367    -8.458E+00 1.290E-02 2.974E+00
 ETOT  2  -8.4621557318200    -4.565E-03 8.054E-04 5.668E-02
 ETOT  3  -8.4621828949933    -2.716E-05 1.694E-04 4.480E-04
 ETOT  4  -8.4621830062856    -1.113E-07 2.078E-05 2.362E-05
 ETOT  5  -8.4621830122298    -5.944E-09 6.731E-06 3.882E-07

 At SCF step    5, etot is converged : 
  for the second time, diff in etot=  5.944E-09 < toldfe=  1.000E-06

 Cartesian components of stress tensor (hartree/bohr^3)
  sigma(1 1)=  2.82639748E-06  sigma(3 2)=  0.00000000E+00
  sigma(2 2)=  2.82639748E-06  sigma(3 1)=  0.00000000E+00
  sigma(3 3)=  2.82639748E-06  sigma(2 1)=  0.00000000E+00


--- !ResultsGS
iteration_state: {dtset: 1, }
comment   : Summary of ground state results
lattice_vectors:
- [  0.0000000,   5.1680000,   5.1680000, ]
- [  5.1680000,   0.0000000,   5.1680000, ]
- [  5.1680000,   5.1680000,   0.0000000, ]
lattice_lengths: [   7.30866,    7.30866,    7.30866, ]
lattice_angles: [ 60.000,  60.000,  60.000, ] # degrees, (23, 13, 12)
lattice_volume:   2.7605620E+02
convergence: {deltae: -5.944E-09, res2:  3.882E-07, residm:  6.731E-06, diffor: null, }
etotal    :  -8.46218301E+00
entropy   :   0.00000000E+00
fermie    :   1.42777213E-01
cartesian_stress_tensor: # hartree/bohr^3
- [  2.82639748E-06,   0.00000000E+00,   0.00000000E+00, ]
- [  0.00000000E+00,   2.82639748E-06,   0.00000000E+00, ]
- [  0.00000000E+00,   0.00000000E+00,   2.82639748E-06, ]
pressure_GPa:  -8.3155E-02
xred      :
- [  0.0000E+00,   0.0000E+00,   0.0000E+00, Si]
- [  2.5000E-01,   2.5000E-01,   2.5000E-01, Si]
cartesian_forces: # hartree/bohr
- [  0.00000000E+00,   0.00000000E+00,   2.08409073E-28, ]
- [  0.00000000E+00,   0.00000000E+00,  -2.08409073E-28, ]
force_length_stats: {min:   2.08409073E-28, max:   2.08409073E-28, mean:   2.08409073E-28, }
...

 Integrated electronic density in atomic spheres:
 ------------------------------------------------
 Atom  Sphere_radius  Integrated_density
    1        2.00000          1.79818147
    2        2.00000          1.79818147
================================================================================

 ----iterations are completed or convergence reached----

 Mean square residual over all n,k,spin=   21.976E-08; max=  67.313E-07
 reduced coordinates (array xred) for    2 atoms
       0.000000000000      0.000000000000      0.000000000000
       0.250000000000      0.250000000000      0.250000000000
 rms dE/dt=  1.0771E-27; max dE/dt=  1.0771E-27; dE/dt below (all hartree)
    1      -0.000000000000     -0.000000000000      0.000000000000
    2       0.000000000000      0.000000000000      0.000000000000

 cartesian coordinates (angstrom) at end:
    1      0.00000000000000     0.00000000000000     0.00000000000000
    2      1.36739390699656     1.36739390699656     1.36739390699656

 cartesian forces (hartree/bohr) at end:
    1      0.00000000000000     0.00000000000000     0.00000000000000
    2      0.00000000000000     0.00000000000000    -0.00000000000000
 frms,max,avg= 1.2032503E-28 2.0840907E-28   0.000E+00  0.000E+00  0.000E+00 h/b

 cartesian forces (eV/Angstrom) at end:
    1      0.00000000000000     0.00000000000000     0.00000000000000
    2      0.00000000000000     0.00000000000000    -0.00000000000000
 frms,max,avg= 6.1873615E-27 1.0716825E-26   0.000E+00  0.000E+00  0.000E+00 e/A
 length scales= 10.336000000000 10.336000000000 10.336000000000 bohr
              =  5.469575627986  5.469575627986  5.469575627986 angstroms
 prteigrs : about to open file ./outdata/ebnd_DS1_EIG
 Fermi (or HOMO) energy (hartree) =   0.14278   Average Vxc (hartree)=  -0.33842
 Eigenvalues (hartree) for nkpt=  10  k points:
 kpt#   1, nband=  5, wtk=  0.09375, kpt= -0.1250 -0.2500  0.0000 (reduced coord)
  -0.25447    0.03508    0.10568    0.10800    0.23192
 prteigrs : prtvol=0 or 1, do not print more k-points.


--- !EnergyTerms
iteration_state     : {dtset: 1, }
comment             : Components of total free energy in Hartree
kinetic             :  3.04170968482880E+00
hartree             :  5.57134414396197E-01
xc                  : -3.07996782617454E+00
Ewald energy        : -8.33869666275825E+00
psp_core            :  5.41525493962328E-01
local_psp           : -2.33202922314450E+00
non_local_psp       :  1.14814110666018E+00
total_energy        : -8.46218301222979E+00
total_energy_eV     : -2.30267710239356E+02
band_energy         : -2.46610299259416E-01
...


 Cartesian components of stress tensor (hartree/bohr^3)
  sigma(1 1)=  2.82639748E-06  sigma(3 2)=  0.00000000E+00
  sigma(2 2)=  2.82639748E-06  sigma(3 1)=  0.00000000E+00
  sigma(3 3)=  2.82639748E-06  sigma(2 1)=  0.00000000E+00

-Cartesian components of stress tensor (GPa)         [Pressure= -8.3155E-02 GPa]
- sigma(1 1)=  8.31554707E-02  sigma(3 2)=  0.00000000E+00
- sigma(2 2)=  8.31554707E-02  sigma(3 1)=  0.00000000E+00
- sigma(3 3)=  8.31554707E-02  sigma(2 1)=  0.00000000E+00

================================================================================
== DATASET  2 ==================================================================
-   mpi_nproc: 1, omp_nthreads: -1 (-1 if OMP is not activated)


--- !DatasetInfo
iteration_state: {dtset: 2, }
dimensions: {natom: 2, nkpt: 99, mband: 8, nsppol: 1, nspinor: 1, nspden: 1, mpw: 560, }
cutoff_energies: {ecut:  12.0, pawecutdg:  -1.0, }
electrons: {nelect:   8.00000000E+00, charge:   0.00000000E+00, occopt:   1.00000000E+00, tsmear:   1.00000000E-02, }
meta: {optdriver: 0, ionmov: 0, optcell: 0, iscf: -2, paral_kgb: 0, }
...

 mkfilename : getden/=0, take file _DEN from output of DATASET   1.

 Exchange-correlation functional for the present dataset will be:
  GGA: Perdew-Burke-Ernzerhof functional - ixc=11
 Citation for XC functional:
  J.P.Perdew, K.Burke, M.Ernzerhof, PRL 77, 3865 (1996)

 Real(R)+Recip(G) space primitive vectors, cartesian coordinates (Bohr,Bohr^-1):
 R(1)=  0.0000000  5.1680000  5.1680000  G(1)= -0.0967492  0.0967492  0.0967492
 R(2)=  5.1680000  0.0000000  5.1680000  G(2)=  0.0967492 -0.0967492  0.0967492
 R(3)=  5.1680000  5.1680000  0.0000000  G(3)=  0.0967492  0.0967492 -0.0967492
 Unit cell volume ucvol=  2.7605620E+02 bohr^3
 Angles (23,13,12)=  6.00000000E+01  6.00000000E+01  6.00000000E+01 degrees

 getcut: wavevector=  0.0000  0.0000  0.0000  ngfft=  24  24  24
         ecut(hartree)=     12.000   => boxcut(ratio)=   2.10580
--------------------------------------------------------------------------------


================================================================================
 prteigrs : about to open file ./outdata/ebnd_DS2_EIG
 Non-SCF case, kpt    1 (  0.00000  0.00000  0.00000), residuals and eigenvalues=
  3.83E-13  2.47E-13  3.47E-13  3.03E-13  4.18E-13  5.09E-13  6.50E-13  6.20E-13
 -2.8121E-01  1.5321E-01  1.5321E-01  1.5321E-01  2.4692E-01  2.4692E-01
  2.4692E-01  2.6703E-01
 Non-SCF case, kpt    2 (  0.02500  0.00000  0.02500), residuals and eigenvalues=
  9.52E-13  9.13E-13  4.81E-13  4.51E-13  4.34E-13  9.40E-13  1.10E-13  6.08E-13
 -2.8082E-01  1.5035E-01  1.5153E-01  1.5153E-01  2.4594E-01  2.4909E-01
  2.4909E-01  2.6983E-01
 Non-SCF case, kpt    3 (  0.05000  0.00000  0.05000), residuals and eigenvalues=
  5.32E-13  6.57E-13  4.45E-13  3.22E-13  1.93E-13  5.00E-13  6.59E-13  5.06E-12
 -2.7963E-01  1.4251E-01  1.4691E-01  1.4691E-01  2.4313E-01  2.5517E-01
  2.5517E-01  2.7738E-01
 Non-SCF case, kpt    4 (  0.07500  0.00000  0.07500), residuals and eigenvalues=
  2.26E-13  2.29E-13  4.39E-13  6.43E-13  1.20E-13  3.14E-13  9.68E-12  1.32E-10
 -2.7766E-01  1.3124E-01  1.4026E-01  1.4026E-01  2.3879E-01  2.6423E-01
  2.6423E-01  2.8773E-01
 Non-SCF case, kpt    5 (  0.10000  0.00000  0.10000), residuals and eigenvalues=
  2.71E-13  1.53E-13  8.67E-13  4.37E-13  6.53E-13  7.84E-13  7.16E-13  5.82E-12
 -2.7491E-01  1.1787E-01  1.3248E-01  1.3248E-01  2.3331E-01  2.7539E-01
  2.7539E-01  2.9866E-01
 Non-SCF case, kpt    6 (  0.12500  0.00000  0.12500), residuals and eigenvalues=
  2.20E-13  1.88E-13  3.75E-13  6.69E-13  5.98E-13  4.82E-13  1.89E-12  7.82E-11
 -2.7137E-01  1.0325E-01  1.2419E-01  1.2419E-01  2.2710E-01  2.8802E-01
  2.8802E-01  3.0731E-01
 Non-SCF case, kpt    7 (  0.15000  0.00000  0.15000), residuals and eigenvalues=
  1.23E-13  5.42E-13  3.21E-13  6.80E-13  8.44E-13  6.93E-13  1.61E-11  1.86E-11
 -2.6706E-01  8.7897E-02  1.1578E-01  1.1578E-01  2.2051E-01  3.0165E-01
  3.0165E-01  3.1004E-01
 Non-SCF case, kpt    8 (  0.17500  0.00000  0.17500), residuals and eigenvalues=
  8.98E-13  4.57E-13  4.08E-13  8.01E-13  2.53E-13  5.14E-13  3.38E-13  7.98E-13
 -2.6198E-01  7.2101E-02  1.0753E-01  1.0753E-01  2.1385E-01  3.0504E-01
  3.1607E-01  3.1607E-01
 Non-SCF case, kpt    9 (  0.20000  0.00000  0.20000), residuals and eigenvalues=
  8.40E-13  4.06E-13  6.50E-13  7.83E-13  2.21E-13  7.93E-13  1.43E-12  4.30E-11
 -2.5613E-01  5.6030E-02  9.9587E-02  9.9587E-02  2.0733E-01  2.9465E-01
  3.3104E-01  3.3104E-01
 Non-SCF case, kpt   10 (  0.22500  0.00000  0.22500), residuals and eigenvalues=
  4.53E-13  2.93E-13  8.35E-13  2.55E-13  1.32E-13  3.61E-13  5.35E-13  4.61E-11
 -2.4954E-01  3.9817E-02  9.2077E-02  9.2077E-02  2.0113E-01  2.8191E-01
  3.4647E-01  3.4647E-01
 Non-SCF case, kpt   11 (  0.25000  0.00000  0.25000), residuals and eigenvalues=
  7.21E-13  1.43E-13  1.50E-13  1.90E-13  2.54E-13  2.53E-13  5.68E-10  1.21E-08
 -2.4220E-01  2.3530E-02  8.5070E-02  8.5070E-02  1.9541E-01  2.6851E-01
  3.6226E-01  3.6226E-01
 Non-SCF case, kpt   12 (  0.27500  0.00000  0.27500), residuals and eigenvalues=
  4.52E-13  1.72E-13  1.51E-13  1.72E-13  3.32E-13  5.00E-13  2.06E-09  2.42E-08
 -2.3413E-01  7.2300E-03  7.8626E-02  7.8626E-02  1.9028E-01  2.5534E-01
  3.7835E-01  3.7835E-01
 Non-SCF case, kpt   13 (  0.30000  0.00000  0.30000), residuals and eigenvalues=
  9.39E-13  1.90E-13  3.73E-13  5.70E-13  8.57E-13  7.97E-13  1.05E-09  8.67E-09
 -2.2535E-01 -9.0312E-03  7.2789E-02  7.2789E-02  1.8582E-01  2.4285E-01
  3.9471E-01  3.9471E-01
 Non-SCF case, kpt   14 (  0.32500  0.00000  0.32500), residuals and eigenvalues=
  2.62E-13  7.73E-13  6.17E-13  5.57E-13  5.40E-13  4.38E-13  3.85E-09  4.01E-08
 -2.1587E-01 -2.5206E-02  6.7578E-02  6.7578E-02  1.8209E-01  2.3125E-01
  4.1126E-01  4.1126E-01
 Non-SCF case, kpt   15 (  0.35000  0.00000  0.35000), residuals and eigenvalues=
  1.87E-13  8.08E-13  6.38E-13  5.91E-13  4.34E-13  4.26E-13  5.10E-09  4.23E-08
 -2.0571E-01 -4.1244E-02  6.3027E-02  6.3027E-02  1.7916E-01  2.2069E-01
  4.2802E-01  4.2802E-01
 Non-SCF case, kpt   16 (  0.37500  0.00000  0.37500), residuals and eigenvalues=
  4.03E-13  2.79E-13  5.79E-13  9.28E-13  3.61E-13  1.85E-13  6.45E-09  1.09E-08
 -1.9489E-01 -5.7095E-02  5.9154E-02  5.9154E-02  1.7710E-01  2.1123E-01
  4.4494E-01  4.4494E-01
 Non-SCF case, kpt   17 (  0.40000  0.00000  0.40000), residuals and eigenvalues=
  2.66E-13  1.69E-13  2.37E-13  2.56E-13  1.86E-13  5.10E-13  3.96E-09  7.58E-09
 -1.8343E-01 -7.2710E-02  5.5963E-02  5.5963E-02  1.7591E-01  2.0289E-01
  4.6189E-01  4.6189E-01
 Non-SCF case, kpt   18 (  0.42500  0.00000  0.42500), residuals and eigenvalues=
  2.83E-13  1.57E-13  6.17E-13  6.34E-13  1.75E-13  3.10E-13  3.12E-09  1.81E-08
 -1.7136E-01 -8.8039E-02  5.3474E-02  5.3474E-02  1.7566E-01  1.9570E-01
  4.7885E-01  4.7885E-01
 Non-SCF case, kpt   19 (  0.45000  0.00000  0.45000), residuals and eigenvalues=
  4.26E-13  2.22E-13  2.29E-13  8.33E-13  1.99E-13  4.31E-13  6.37E-08  1.87E-07
 -1.5872E-01 -1.0303E-01  5.1692E-02  5.1692E-02  1.7639E-01  1.8966E-01
  4.9544E-01  4.9544E-01
 Non-SCF case, kpt   20 (  0.47500  0.00000  0.47500), residuals and eigenvalues=
  9.97E-13  4.24E-13  4.86E-13  8.38E-13  1.64E-13  3.27E-13  7.15E-07  1.09E-05
 -1.4552E-01 -1.1764E-01  5.0620E-02  5.0620E-02  1.7814E-01  1.8474E-01
  5.1020E-01  5.1022E-01
 Non-SCF case, kpt   21 (  0.50000  0.00000  0.50000), residuals and eigenvalues=
  1.66E-13  4.10E-13  1.81E-13  1.71E-13  1.58E-13  2.58E-13  9.24E-06  1.44E-05
 -1.3181E-01 -1.3181E-01  5.0264E-02  5.0264E-02  1.8091E-01  1.8091E-01
  5.1764E-01  5.1766E-01
 Non-SCF case, kpt   22 (  0.50000  0.02500  0.52500), residuals and eigenvalues=
  3.91E-13  4.89E-13  1.25E-13  2.20E-13  2.94E-13  4.92E-13  9.70E-06  1.04E-05
 -1.3169E-01 -1.3169E-01  4.9097E-02  4.9097E-02  1.8308E-01  1.8308E-01
  5.1407E-01  5.1409E-01
 Non-SCF case, kpt   23 (  0.50000  0.05000  0.55000), residuals and eigenvalues=
  1.52E-13  1.96E-13  5.70E-13  5.52E-13  7.91E-13  2.47E-13  8.99E-07  1.86E-04
 -1.3132E-01 -1.3132E-01  4.5859E-02  4.5859E-02  1.8933E-01  1.8933E-01
  5.0226E-01  5.0242E-01
 Non-SCF case, kpt   24 (  0.50000  0.07500  0.57500), residuals and eigenvalues=
  2.12E-13  6.28E-13  2.04E-13  8.97E-13  8.82E-13  9.39E-13  1.98E-06  5.58E-06
 -1.3073E-01 -1.3073E-01  4.1179E-02  4.1179E-02  1.9905E-01  1.9905E-01
  4.8347E-01  4.8347E-01
 Non-SCF case, kpt   25 (  0.50000  0.10000  0.60000), residuals and eigenvalues=
  3.47E-13  6.19E-13  5.66E-13  4.55E-13  3.22E-13  2.41E-13  2.76E-08  2.61E-08
 -1.2997E-01 -1.2997E-01  3.5773E-02  3.5773E-02  2.1156E-01  2.1156E-01
  4.6138E-01  4.6138E-01
 Non-SCF case, kpt   26 (  0.50000  0.12500  0.62500), residuals and eigenvalues=
  7.56E-13  6.87E-13  1.88E-13  4.08E-13  2.77E-13  5.08E-13  1.23E-09  2.65E-09
 -1.2911E-01 -1.2911E-01  3.0271E-02  3.0271E-02  2.2626E-01  2.2626E-01
  4.3813E-01  4.3813E-01
 Non-SCF case, kpt   27 (  0.50000  0.15000  0.65000), residuals and eigenvalues=
  2.24E-13  5.18E-13  7.15E-13  7.20E-13  5.39E-13  2.88E-13  2.28E-11  2.07E-11
 -1.2822E-01 -1.2822E-01  2.5166E-02  2.5166E-02  2.4269E-01  2.4269E-01
  4.1461E-01  4.1461E-01
 Non-SCF case, kpt   28 (  0.50000  0.17500  0.67500), residuals and eigenvalues=
  3.72E-13  2.35E-13  3.82E-13  8.18E-13  8.23E-13  5.06E-13  2.91E-12  1.45E-11
 -1.2740E-01 -1.2740E-01  2.0831E-02  2.0831E-02  2.6048E-01  2.6048E-01
  3.9133E-01  3.9133E-01
 Non-SCF case, kpt   29 (  0.50000  0.20000  0.70000), residuals and eigenvalues=
  4.51E-13  3.68E-13  4.25E-13  4.19E-13  4.80E-13  5.42E-13  1.55E-12  2.43E-12
 -1.2673E-01 -1.2673E-01  1.7540E-02  1.7540E-02  2.7924E-01  2.7924E-01
  3.6864E-01  3.6864E-01
 Non-SCF case, kpt   30 (  0.50000  0.22500  0.72500), residuals and eigenvalues=
  4.59E-13  3.16E-13  3.36E-13  3.36E-13  4.91E-13  2.40E-13  1.31E-13  3.58E-13
 -1.2630E-01 -1.2630E-01  1.5487E-02  1.5487E-02  2.9813E-01  2.9813E-01
  3.4740E-01  3.4740E-01
 Non-SCF case, kpt   31 (  0.50000  0.25000  0.75000), residuals and eigenvalues=
  4.52E-13  3.21E-13  2.88E-13  5.42E-13  2.74E-13  2.94E-13  5.34E-13  7.70E-13
 -1.2614E-01 -1.2614E-01  1.4790E-02  1.4790E-02  3.1059E-01  3.1059E-01
  3.3419E-01  3.3419E-01
 Non-SCF case, kpt   32 (  0.50000  0.26786  0.73214), residuals and eigenvalues=
  1.58E-13  3.88E-13  3.14E-13  2.98E-13  2.66E-13  3.05E-13  8.22E-13  3.13E-13
 -1.3460E-01 -1.1790E-01  9.2919E-03  2.1709E-02  3.0285E-01  3.1223E-01
  3.3254E-01  3.4354E-01
 Non-SCF case, kpt   33 (  0.50000  0.28571  0.71429), residuals and eigenvalues=
  7.49E-13  1.68E-13  1.69E-13  2.30E-13  6.67E-13  3.29E-13  1.01E-11  2.47E-11
 -1.4298E-01 -1.1026E-01  5.6662E-03  2.9687E-02  2.9464E-01  3.0535E-01
  3.4105E-01  3.5505E-01
 Non-SCF case, kpt   34 (  0.50000  0.30357  0.69643), residuals and eigenvalues=
  5.69E-13  7.62E-13  3.17E-13  2.80E-13  5.94E-13  4.41E-13  1.33E-11  2.22E-11
 -1.5106E-01 -1.0370E-01  4.4138E-03  3.8415E-02  2.8717E-01  2.9663E-01
  3.5304E-01  3.6754E-01
 Non-SCF case, kpt   35 (  0.50000  0.32143  0.67857), residuals and eigenvalues=
  3.94E-13  9.58E-13  4.07E-13  6.36E-13  6.91E-13  8.51E-13  2.30E-09  2.31E-09
 -1.5871E-01 -9.8668E-02  5.9966E-03  4.7617E-02  2.8074E-01  2.8794E-01
  3.6653E-01  3.8067E-01
 Non-SCF case, kpt   36 (  0.50000  0.33929  0.66071), residuals and eigenvalues=
  1.86E-13  2.07E-13  3.71E-13  2.91E-13  1.71E-13  4.47E-13  5.69E-08  3.55E-07
 -1.6581E-01 -9.5407E-02  1.0657E-02  5.7035E-02  2.7550E-01  2.7964E-01
  3.8103E-01  3.9423E-01
 Non-SCF case, kpt   37 (  0.50000  0.35714  0.64286), residuals and eigenvalues=
  2.16E-13  4.47E-13  3.46E-13  5.50E-13  4.28E-13  4.81E-13  2.47E-06  2.86E-05
 -1.7229E-01 -9.3838E-02  1.8289E-02  6.6401E-02  2.7158E-01  2.7174E-01
  3.9194E-01  3.9835E-01
 Non-SCF case, kpt   38 (  0.50000  0.37500  0.62500), residuals and eigenvalues=
  6.99E-13  5.37E-13  5.43E-13  4.36E-13  1.80E-13  2.14E-13  5.61E-09  5.93E-05
 -1.7810E-01 -9.3609E-02  2.8476E-02  7.5439E-02  2.6413E-01  2.6903E-01
  3.6811E-01  4.1382E-01
 Non-SCF case, kpt   39 (  0.50000  0.39286  0.60714), residuals and eigenvalues=
  2.88E-13  2.33E-13  7.12E-13  7.44E-13  4.24E-13  8.76E-13  5.69E-10  1.30E-05
 -1.8319E-01 -9.4259E-02  4.0657E-02  8.3870E-02  2.5659E-01  2.6789E-01
  3.4481E-01  4.3360E-01
 Non-SCF case, kpt   40 (  0.50000  0.41071  0.58929), residuals and eigenvalues=
  8.83E-13  3.18E-13  1.09E-13  2.93E-13  5.95E-13  8.07E-13  9.82E-11  9.45E-06
 -1.8754E-01 -9.5371E-02  5.4237E-02  9.1422E-02  2.4868E-01  2.6810E-01
  3.2373E-01  4.4451E-01
 Non-SCF case, kpt   41 (  0.50000  0.42857  0.57143), residuals and eigenvalues=
  2.46E-13  1.74E-13  3.76E-13  7.23E-13  5.70E-13  6.17E-13  7.99E-13  2.40E-05
 -1.9113E-01 -9.6624E-02  6.8582E-02  9.7858E-02  2.3983E-01  2.6946E-01
  3.0585E-01  4.4930E-01
 Non-SCF case, kpt   42 (  0.50000  0.44643  0.55357), residuals and eigenvalues=
  9.71E-13  1.66E-13  7.60E-13  7.79E-13  3.10E-13  2.63E-13  7.85E-13  2.01E-05
 -1.9393E-01 -9.7789E-02  8.2910E-02  1.0299E-01  2.2971E-01  2.7154E-01
  2.9213E-01  4.4764E-01
 Non-SCF case, kpt   43 (  0.50000  0.46429  0.53571), residuals and eigenvalues=
  5.38E-13  2.18E-13  9.47E-13  2.87E-13  2.27E-13  5.30E-13  8.55E-13  3.61E-08
 -1.9594E-01 -9.8713E-02  9.6018E-02  1.0671E-01  2.1904E-01  2.7387E-01
  2.8299E-01  4.4257E-01
 Non-SCF case, kpt   44 (  0.50000  0.48214  0.51786), residuals and eigenvalues=
  9.56E-13  6.65E-13  1.96E-13  9.47E-13  4.37E-13  8.45E-13  3.42E-13  2.63E-08
 -1.9715E-01 -9.9303E-02  1.0589E-01  1.0896E-01  2.1022E-01  2.7567E-01
  2.7795E-01  4.3806E-01
 Non-SCF case, kpt   45 (  0.50000  0.50000  0.50000), residuals and eigenvalues=
  5.77E-13  2.27E-13  3.37E-13  4.28E-13  7.12E-13  4.77E-13  6.31E-13  5.87E-11
 -1.9755E-01 -9.9505E-02  1.0970E-01  1.0970E-01  2.0666E-01  2.7635E-01
  2.7635E-01  4.3633E-01
 Non-SCF case, kpt   46 (  0.47059  0.47059  0.47059), residuals and eigenvalues=
  3.82E-13  1.30E-13  2.48E-13  3.76E-13  1.89E-13  7.67E-13  9.32E-13  9.66E-10
 -1.9928E-01 -9.7007E-02  1.0994E-01  1.0994E-01  2.0692E-01  2.7660E-01
  2.7660E-01  4.3671E-01
 Non-SCF case, kpt   47 (  0.44118  0.44118  0.44118), residuals and eigenvalues=
  4.31E-13  1.45E-13  3.67E-13  5.71E-13  1.97E-13  2.99E-13  8.89E-13  1.14E-08
 -2.0397E-01 -8.9989E-02  1.1061E-01  1.1061E-01  2.0771E-01  2.7732E-01
  2.7732E-01  4.3780E-01
 Non-SCF case, kpt   48 (  0.41176  0.41176  0.41176), residuals and eigenvalues=
  3.52E-13  1.49E-13  7.90E-13  4.76E-13  2.78E-13  8.43E-13  2.54E-13  1.02E-07
 -2.1063E-01 -7.9473E-02  1.1174E-01  1.1174E-01  2.0904E-01  2.7842E-01
  2.7842E-01  4.3938E-01
 Non-SCF case, kpt   49 (  0.38235  0.38235  0.38235), residuals and eigenvalues=
  3.17E-13  6.78E-13  2.23E-13  5.91E-13  2.67E-13  2.47E-13  7.31E-13  7.58E-07
 -2.1830E-01 -6.6416E-02  1.1332E-01  1.1332E-01  2.1087E-01  2.7977E-01
  2.7977E-01  4.4092E-01
 Non-SCF case, kpt   50 (  0.35294  0.35294  0.35294), residuals and eigenvalues=
  9.86E-13  2.44E-13  6.71E-13  6.19E-13  1.15E-13  3.63E-13  2.24E-13  3.44E-04
 -2.2632E-01 -5.1504E-02  1.1535E-01  1.1535E-01  2.1317E-01  2.8114E-01
  2.8114E-01  4.4234E-01
 Non-SCF case, kpt   51 (  0.32353  0.32353  0.32353), residuals and eigenvalues=
  4.57E-13  3.24E-13  2.50E-13  1.65E-13  9.43E-13  3.96E-13  6.01E-13  3.07E-05
 -2.3427E-01 -3.5175E-02  1.1780E-01  1.1780E-01  2.1596E-01  2.8224E-01
  2.8224E-01  4.3754E-01
 Non-SCF case, kpt   52 (  0.29412  0.29412  0.29412), residuals and eigenvalues=
  6.26E-13  7.84E-13  4.93E-13  2.50E-13  7.09E-13  9.38E-13  5.49E-13  3.57E-05
 -2.4190E-01 -1.7725E-02  1.2067E-01  1.2067E-01  2.1919E-01  2.8270E-01
  2.8270E-01  4.2640E-01
 Non-SCF case, kpt   53 (  0.26471  0.26471  0.26471), residuals and eigenvalues=
  3.69E-13  1.92E-13  2.60E-13  3.63E-13  3.77E-13  5.14E-13  6.92E-12  4.19E-05
 -2.4904E-01  6.2863E-04  1.2393E-01  1.2393E-01  2.2282E-01  2.8218E-01
  2.8218E-01  4.0991E-01
 Non-SCF case, kpt   54 (  0.23529  0.23529  0.23529), residuals and eigenvalues=
  3.66E-13  3.07E-13  9.07E-13  6.06E-13  3.85E-13  6.39E-13  2.77E-13  4.44E-08
 -2.5559E-01  1.9710E-02  1.2754E-01  1.2754E-01  2.2677E-01  2.8023E-01
  2.8023E-01  3.9140E-01
 Non-SCF case, kpt   55 (  0.20588  0.20588  0.20588), residuals and eigenvalues=
  3.92E-13  3.39E-13  6.88E-13  6.57E-13  8.11E-13  4.15E-13  9.53E-13  1.23E-07
 -2.6147E-01  3.9353E-02  1.3144E-01  1.3144E-01  2.3097E-01  2.7681E-01
  2.7681E-01  3.7236E-01
 Non-SCF case, kpt   56 (  0.17647  0.17647  0.17647), residuals and eigenvalues=
  5.94E-13  2.65E-13  3.43E-13  7.16E-13  1.63E-13  5.19E-13  5.08E-13  5.23E-09
 -2.6664E-01  5.9376E-02  1.3553E-01  1.3553E-01  2.3529E-01  2.7212E-01
  2.7212E-01  3.5292E-01
 Non-SCF case, kpt   57 (  0.14706  0.14706  0.14706), residuals and eigenvalues=
  1.61E-13  2.96E-13  3.89E-13  3.69E-13  7.99E-13  6.82E-13  6.84E-13  2.33E-09
 -2.7105E-01  7.9530E-02  1.3971E-01  1.3971E-01  2.3953E-01  2.6660E-01
  2.6660E-01  3.3339E-01
 Non-SCF case, kpt   58 (  0.11765  0.11765  0.11765), residuals and eigenvalues=
  2.66E-13  8.59E-13  6.13E-13  4.76E-13  6.58E-13  2.38E-13  1.52E-13  9.65E-11
 -2.7469E-01  9.9446E-02  1.4376E-01  1.4376E-01  2.4344E-01  2.6080E-01
  2.6080E-01  3.1418E-01
 Non-SCF case, kpt   59 (  0.08824  0.08824  0.08824), residuals and eigenvalues=
  1.71E-13  4.63E-13  5.81E-13  2.71E-13  1.60E-13  4.32E-13  1.45E-13  1.36E-10
 -2.7753E-01  1.1850E-01  1.4746E-01  1.4746E-01  2.4663E-01  2.5537E-01
  2.5537E-01  2.9603E-01
 Non-SCF case, kpt   60 (  0.05882  0.05882  0.05882), residuals and eigenvalues=
  2.41E-13  8.79E-13  2.80E-13  9.76E-13  9.01E-13  9.03E-13  6.97E-13  4.68E-13
 -2.7958E-01  1.3553E-01  1.5049E-01  1.5049E-01  2.4840E-01  2.5090E-01
  2.5090E-01  2.8046E-01
 Non-SCF case, kpt   61 (  0.02941  0.02941  0.02941), residuals and eigenvalues=
  1.72E-13  5.54E-13  4.12E-13  1.45E-13  6.85E-13  7.32E-13  6.48E-13  6.68E-13
 -2.8080E-01  1.4826E-01  1.5250E-01  1.5250E-01  2.4795E-01  2.4795E-01
  2.4797E-01  2.7022E-01
 Non-SCF case, kpt   62 (  0.00000  0.00000  0.00000), residuals and eigenvalues=
  3.83E-13  2.47E-13  3.47E-13  3.03E-13  4.18E-13  5.09E-13  6.50E-13  6.20E-13
 -2.8121E-01  1.5321E-01  1.5321E-01  1.5321E-01  2.4692E-01  2.4692E-01
  2.4692E-01  2.6703E-01
 Non-SCF case, kpt   63 (  0.01786  0.01786  0.03571), residuals and eigenvalues=
  9.00E-13  4.66E-13  4.36E-13  1.14E-13  8.74E-13  3.54E-13  9.03E-13  6.42E-13
 -2.8081E-01  1.4884E-01  1.5147E-01  1.5303E-01  2.4733E-01  2.4774E-01
  2.4884E-01  2.7010E-01
 Non-SCF case, kpt   64 (  0.03571  0.03571  0.07143), residuals and eigenvalues=
  6.07E-13  3.53E-13  1.23E-13  6.42E-13  3.95E-13  6.57E-13  7.57E-13  4.42E-13
 -2.7960E-01  1.3760E-01  1.4650E-01  1.5247E-01  2.4858E-01  2.5008E-01
  2.5209E-01  2.7984E-01
 Non-SCF case, kpt   65 (  0.05357  0.05357  0.10714), residuals and eigenvalues=
  1.91E-13  4.46E-13  3.59E-13  7.67E-13  4.42E-13  2.35E-13  8.28E-13  2.98E-11
 -2.7760E-01  1.2263E-01  1.3889E-01  1.5151E-01  2.5066E-01  2.5361E-01
  2.5461E-01  2.9487E-01
 Non-SCF case, kpt   66 (  0.07143  0.07143  0.14286), residuals and eigenvalues=
  8.24E-13  5.15E-13  5.54E-13  4.89E-13  1.74E-13  2.98E-13  4.60E-13  2.88E-10
 -2.7479E-01  1.0601E-01  1.2933E-01  1.5009E-01  2.5356E-01  2.5667E-01
  2.5808E-01  3.1218E-01
 Non-SCF case, kpt   67 (  0.08929  0.08929  0.17857), residuals and eigenvalues=
  7.58E-13  8.41E-13  6.30E-13  3.54E-13  9.05E-13  9.61E-13  1.26E-12  7.70E-09
 -2.7121E-01  8.8801E-02  1.1845E-01  1.4815E-01  2.5730E-01  2.5857E-01
  2.6326E-01  3.2914E-01
 Non-SCF case, kpt   68 (  0.10714  0.10714  0.21429), residuals and eigenvalues=
  1.38E-13  3.36E-13  3.02E-13  3.64E-13  4.64E-13  5.99E-13  3.83E-13  3.35E-07
 -2.6685E-01  7.1569E-02  1.0675E-01  1.4563E-01  2.6032E-01  2.6185E-01
  2.6911E-01  3.4321E-01
 Non-SCF case, kpt   69 (  0.12500  0.12500  0.25000), residuals and eigenvalues=
  2.63E-13  1.84E-13  6.19E-13  9.90E-13  9.57E-13  1.52E-13  1.15E-12  1.20E-06
 -2.6173E-01  5.4613E-02  9.4642E-02  1.4248E-01  2.6177E-01  2.6724E-01
  2.7562E-01  3.5231E-01
 Non-SCF case, kpt   70 (  0.14286  0.14286  0.28571), residuals and eigenvalues=
  3.33E-13  2.87E-13  1.95E-13  2.85E-13  5.08E-13  4.06E-13  6.29E-13  9.57E-07
 -2.5589E-01  3.8111E-02  8.2425E-02  1.3868E-01  2.6260E-01  2.7343E-01
  2.8277E-01  3.5648E-01
 Non-SCF case, kpt   71 (  0.16071  0.16071  0.32143), residuals and eigenvalues=
  3.98E-13  3.89E-13  4.49E-13  1.58E-13  3.02E-13  9.59E-13  2.03E-12  5.30E-07
 -2.4933E-01  2.2177E-02  7.0350E-02  1.3424E-01  2.6252E-01  2.8044E-01
  2.9061E-01  3.5787E-01
 Non-SCF case, kpt   72 (  0.17857  0.17857  0.35714), residuals and eigenvalues=
  5.29E-13  7.07E-13  8.16E-13  6.89E-13  6.82E-13  2.88E-13  9.08E-13  4.75E-07
 -2.4211E-01  6.8863E-03  5.8612E-02  1.2922E-01  2.6118E-01  2.8827E-01
  2.9915E-01  3.5867E-01
 Non-SCF case, kpt   73 (  0.19643  0.19643  0.39286), residuals and eigenvalues=
  6.66E-13  4.62E-13  6.04E-13  7.36E-13  1.76E-13  8.50E-13  6.37E-12  4.24E-06
 -2.3426E-01 -7.7189E-03  4.7375E-02  1.2368E-01  2.5840E-01  2.9690E-01
  3.0837E-01  3.6031E-01
 Non-SCF case, kpt   74 (  0.21429  0.21429  0.42857), residuals and eigenvalues=
  5.94E-13  4.80E-13  3.34E-13  4.84E-13  1.86E-13  3.36E-13  9.82E-12  1.65E-07
 -2.2584E-01 -2.1593E-02  3.6792E-02  1.1774E-01  2.5421E-01  3.0632E-01
  3.1832E-01  3.6343E-01
 Non-SCF case, kpt   75 (  0.23214  0.23214  0.46429), residuals and eigenvalues=
  3.21E-13  4.72E-13  2.86E-13  6.59E-13  5.78E-13  3.93E-13  4.20E-12  1.76E-06
 -2.1693E-01 -3.4710E-02  2.7004E-02  1.1152E-01  2.4886E-01  3.1656E-01
  3.2900E-01  3.6828E-01
 Non-SCF case, kpt   76 (  0.25000  0.25000  0.50000), residuals and eigenvalues=
  1.97E-13  8.30E-13  2.28E-13  1.76E-13  2.58E-13  6.37E-13  1.60E-12  1.05E-06
 -2.0763E-01 -4.7048E-02  1.8156E-02  1.0516E-01  2.4267E-01  3.2754E-01
  3.4035E-01  3.7474E-01
 Non-SCF case, kpt   77 (  0.26786  0.26786  0.53571), residuals and eigenvalues=
  2.95E-13  3.55E-13  1.50E-13  2.14E-13  8.10E-13  3.37E-13  1.68E-11  3.38E-06
 -1.9806E-01 -5.8586E-02  1.0404E-02  9.8781E-02  2.3600E-01  3.3930E-01
  3.5236E-01  3.8265E-01
 Non-SCF case, kpt   78 (  0.28571  0.28571  0.57143), residuals and eigenvalues=
  2.62E-13  2.63E-13  8.61E-13  9.93E-13  3.34E-13  3.16E-13  1.44E-12  8.17E-07
 -1.8839E-01 -6.9314E-02  3.9313E-03  9.2496E-02  2.2914E-01  3.5179E-01
  3.6480E-01  3.9176E-01
 Non-SCF case, kpt   79 (  0.30357  0.30357  0.60714), residuals and eigenvalues=
  1.79E-13  1.78E-13  5.84E-13  5.88E-13  3.10E-13  6.53E-13  5.40E-13  1.71E-08
 -1.7883E-01 -7.9218E-02 -1.0553E-03  8.6410E-02  2.2234E-01  3.6500E-01
  3.7677E-01  4.0191E-01
 Non-SCF case, kpt   80 (  0.32143  0.32143  0.64286), residuals and eigenvalues=
  2.93E-13  9.14E-13  3.47E-13  5.85E-13  5.27E-13  8.40E-13  5.24E-13  2.27E-05
 -1.6963E-01 -8.8286E-02 -4.3147E-03  8.0614E-02  2.1578E-01  3.7892E-01
  3.7932E-01  4.0525E-01
 Non-SCF case, kpt   81 (  0.33929  0.33929  0.67857), residuals and eigenvalues=
  2.60E-13  9.23E-13  1.02E-13  8.69E-13  3.40E-13  5.60E-13  1.07E-09  2.33E-06
 -1.6108E-01 -9.6513E-02 -5.5954E-03  7.5180E-02  2.0957E-01  3.5759E-01
  3.9345E-01  4.1355E-01
 Non-SCF case, kpt   82 (  0.35714  0.35714  0.71429), residuals and eigenvalues=
  4.39E-13  3.59E-13  9.26E-13  1.35E-13  2.30E-13  3.29E-13  8.25E-08  1.62E-05
 -1.5348E-01 -1.0389E-01 -4.6582E-03  7.0176E-02  2.0383E-01  3.3099E-01
  4.0860E-01  4.2850E-01
 Non-SCF case, kpt   83 (  0.37500  0.37500  0.75000), residuals and eigenvalues=
  4.15E-13  3.33E-13  9.13E-13  1.73E-13  1.46E-13  2.68E-13  1.46E-06  1.72E-05
 -1.4706E-01 -1.1042E-01 -1.3604E-03  6.5657E-02  1.9863E-01  3.0450E-01
  4.2428E-01  4.4513E-01
 Non-SCF case, kpt   84 (  0.38281  0.35156  0.73438), residuals and eigenvalues=
  2.74E-13  2.32E-13  5.43E-13  1.14E-13  4.76E-13  2.11E-13  8.51E-07  2.45E-05
 -1.4939E-01 -1.0781E-01 -2.8356E-03  6.5576E-02  2.0384E-01  3.1621E-01
  4.0989E-01  4.3236E-01
 Non-SCF case, kpt   85 (  0.39062  0.32812  0.71875), residuals and eigenvalues=
  1.69E-13  7.63E-13  7.06E-13  3.76E-13  4.68E-13  5.57E-13  7.29E-09  2.36E-07
 -1.5130E-01 -1.0535E-01 -3.3304E-03  6.2180E-02  2.1462E-01  3.2826E-01
  3.9042E-01  4.0926E-01
 Non-SCF case, kpt   86 (  0.39844  0.30469  0.70312), residuals and eigenvalues=
  2.03E-13  1.78E-13  1.38E-13  6.19E-13  2.62E-13  8.61E-13  2.70E-10  1.36E-09
 -1.5282E-01 -1.0311E-01 -2.8506E-03  5.6721E-02  2.2975E-01  3.3932E-01
  3.7193E-01  3.8624E-01
 Non-SCF case, kpt   87 (  0.40625  0.28125  0.68750), residuals and eigenvalues=
  3.89E-13  1.99E-13  1.52E-13  5.50E-13  7.14E-13  6.77E-13  2.37E-12  2.10E-12
 -1.5391E-01 -1.0121E-01 -1.4146E-03  5.0457E-02  2.4799E-01  3.3949E-01
  3.6371E-01  3.6510E-01
 Non-SCF case, kpt   88 (  0.41406  0.25781  0.67188), residuals and eigenvalues=
  3.77E-13  1.79E-13  1.86E-13  8.21E-13  3.75E-13  3.90E-13  1.47E-12  2.65E-10
 -1.5458E-01 -9.9810E-02  9.4525E-04  4.4366E-02  2.6831E-01  3.2328E-01
  3.4202E-01  3.7560E-01
 Non-SCF case, kpt   89 (  0.42188  0.23438  0.65625), residuals and eigenvalues=
  1.19E-13  6.78E-13  1.26E-13  5.61E-13  1.41E-13  7.90E-13  3.25E-12  1.39E-09
 -1.5480E-01 -9.9094E-02  4.1820E-03  3.9150E-02  2.8910E-01  3.0431E-01
  3.2232E-01  3.8992E-01
 Non-SCF case, kpt   90 (  0.42969  0.21094  0.64062), residuals and eigenvalues=
  2.23E-13  8.16E-13  3.81E-13  1.94E-13  3.73E-13  3.92E-13  2.91E-13  1.94E-09
 -1.5458E-01 -9.9232E-02  8.2317E-03  3.5285E-02  2.8541E-01  2.9449E-01
  3.2022E-01  4.0536E-01
 Non-SCF case, kpt   91 (  0.43750  0.18750  0.62500), residuals and eigenvalues=
  4.12E-13  2.72E-13  9.80E-13  4.58E-13  2.64E-13  2.80E-13  2.00E-11  2.99E-08
 -1.5389E-01 -1.0034E-01  1.3007E-02  3.3052E-02  2.6712E-01  2.7760E-01
  3.4239E-01  4.2140E-01
 Non-SCF case, kpt   92 (  0.44531  0.16406  0.60938), residuals and eigenvalues=
  1.68E-13  4.35E-13  7.02E-13  8.68E-13  6.51E-13  5.99E-13  4.39E-11  7.27E-08
 -1.5274E-01 -1.0243E-01  1.8392E-02  3.2539E-02  2.4975E-01  2.5959E-01
  3.6760E-01  4.3784E-01
 Non-SCF case, kpt   93 (  0.45312  0.14062  0.59375), residuals and eigenvalues=
  1.73E-13  5.41E-13  7.01E-13  2.26E-13  4.83E-13  5.22E-13  5.52E-10  2.73E-07
 -1.5110E-01 -1.0542E-01  2.4224E-02  3.3640E-02  2.3350E-01  2.4244E-01
  3.9375E-01  4.5433E-01
 Non-SCF case, kpt   94 (  0.46094  0.11719  0.57812), residuals and eigenvalues=
  7.38E-13  2.22E-13  3.00E-13  1.75E-13  5.32E-13  6.12E-13  8.58E-10  3.89E-07
 -1.4899E-01 -1.0916E-01  3.0284E-02  3.6082E-02  2.1866E-01  2.2660E-01
  4.2038E-01  4.7047E-01
 Non-SCF case, kpt   95 (  0.46875  0.09375  0.56250), residuals and eigenvalues=
  9.94E-13  5.27E-13  3.08E-13  2.11E-13  2.93E-13  9.44E-13  2.59E-08  4.93E-06
 -1.4641E-01 -1.1342E-01  3.6269E-02  3.9453E-02  2.0558E-01  2.1237E-01
  4.4698E-01  4.8546E-01
 Non-SCF case, kpt   96 (  0.47656  0.07031  0.54688), residuals and eigenvalues=
  1.22E-13  8.21E-13  4.88E-13  7.09E-13  4.82E-13  5.37E-13  2.43E-06  1.95E-04
 -1.4337E-01 -1.1799E-01  4.1772E-02  4.3218E-02  1.9471E-01  2.0017E-01
  4.7288E-01  4.9849E-01
 Non-SCF case, kpt   97 (  0.48438  0.04688  0.53125), residuals and eigenvalues=
  8.56E-13  3.44E-13  6.74E-13  3.70E-13  8.63E-13  2.53E-13  1.08E-05  5.95E-05
 -1.3989E-01 -1.2269E-01  4.6277E-02  4.6737E-02  1.8661E-01  1.9048E-01
  4.9625E-01  5.0808E-01
 Non-SCF case, kpt   98 (  0.49219  0.02344  0.51562), residuals and eigenvalues=
  3.80E-13  8.42E-13  1.16E-13  2.49E-13  9.97E-13  5.19E-13  9.82E-06  5.38E-06
 -1.3603E-01 -1.2734E-01  4.9241E-02  4.9302E-02  1.8185E-01  1.8388E-01
  5.1268E-01  5.1471E-01
 Non-SCF case, kpt   99 (  0.50000  0.00000  0.50000), residuals and eigenvalues=
  1.66E-13  4.10E-13  1.81E-13  1.71E-13  1.58E-13  2.58E-13  9.24E-06  1.44E-05
 -1.3181E-01 -1.3181E-01  5.0264E-02  5.0264E-02  1.8091E-01  1.8091E-01
  5.1764E-01  5.1766E-01


--- !ResultsGS
iteration_state: {dtset: 2, }
comment   : Summary of ground state results
lattice_vectors:
- [  0.0000000,   5.1680000,   5.1680000, ]
- [  5.1680000,   0.0000000,   5.1680000, ]
- [  5.1680000,   5.1680000,   0.0000000, ]
lattice_lengths: [   7.30866,    7.30866,    7.30866, ]
lattice_angles: [ 60.000,  60.000,  60.000, ] # degrees, (23, 13, 12)
lattice_volume:   2.7605620E+02
convergence: {deltae:  0.000E+00, res2:  0.000E+00, residm:  9.973E-13, diffor:  0.000E+00, }
etotal    :  -8.46218301E+00
entropy   :   0.00000000E+00
fermie    :   1.42777213E-01
cartesian_stress_tensor: null
pressure_GPa: null
xred      :
- [  0.0000E+00,   0.0000E+00,   0.0000E+00, Si]
- [  2.5000E-01,   2.5000E-01,   2.5000E-01, Si]
cartesian_forces: null
force_length_stats: {min: null, max: null, mean: null, }
...

 Integrated electronic density in atomic spheres:
 ------------------------------------------------
 Atom  Sphere_radius  Integrated_density
    1        2.00000          1.79818147
    2        2.00000          1.79818147
================================================================================

 ----iterations are completed or convergence reached----

 Mean square residual over all n,k,spin=   45.638E-14; max=  99.726E-14
 reduced coordinates (array xred) for    2 atoms
       0.000000000000      0.000000000000      0.000000000000
       0.250000000000      0.250000000000      0.250000000000

 cartesian coordinates (angstrom) at end:
    1      0.00000000000000     0.00000000000000     0.00000000000000
    2      1.36739390699656     1.36739390699656     1.36739390699656
 length scales= 10.336000000000 10.336000000000 10.336000000000 bohr
              =  5.469575627986  5.469575627986  5.469575627986 angstroms
 prteigrs : about to open file ./outdata/ebnd_DS2_EIG
 Eigenvalues (   eV  ) for nkpt=  99  k points:
 kpt#   1, nband=  8, wtk=  1.00000, kpt=  0.0000  0.0000  0.0000 (reduced coord)
  -7.65220    4.16904    4.16904    4.16904    6.71902    6.71902    6.71902    7.26628
 kpt#   2, nband=  8, wtk=  1.00000, kpt=  0.0250  0.0000  0.0250 (reduced coord)
  -7.64146    4.09112    4.12327    4.12327    6.69248    6.77808    6.77808    7.34253
 kpt#   3, nband=  8, wtk=  1.00000, kpt=  0.0500  0.0000  0.0500 (reduced coord)
  -7.60924    3.87793    3.99753    3.99753    6.61599    6.94365    6.94365    7.54778
 kpt#   4, nband=  8, wtk=  1.00000, kpt=  0.0750  0.0000  0.0750 (reduced coord)
  -7.55561    3.57129    3.81680    3.81680    6.49775    7.19015    7.19015    7.82965
 kpt#   5, nband=  8, wtk=  1.00000, kpt=  0.1000  0.0000  0.1000 (reduced coord)
  -7.48061    3.20738    3.60509    3.60509    6.34869    7.49388    7.49388    8.12688
 kpt#   6, nband=  8, wtk=  1.00000, kpt=  0.1250  0.0000  0.1250 (reduced coord)
  -7.38437    2.80964    3.37936    3.37936    6.17975    7.83734    7.83734    8.36244
 kpt#   7, nband=  8, wtk=  1.00000, kpt=  0.1500  0.0000  0.1500 (reduced coord)
  -7.26703    2.39181    3.15064    3.15064    6.00045    8.20841    8.20841    8.43653
 kpt#   8, nband=  8, wtk=  1.00000, kpt=  0.1750  0.0000  0.1750 (reduced coord)
  -7.12874    1.96196    2.92599    2.92599    5.81917    8.30058    8.60063    8.60063
 kpt#   9, nband=  8, wtk=  1.00000, kpt=  0.2000  0.0000  0.2000 (reduced coord)
  -6.96976    1.52466    2.70990    2.70990    5.64183    8.01772    9.00807    9.00807
 kpt#  10, nband=  8, wtk=  1.00000, kpt=  0.2250  0.0000  0.2250 (reduced coord)
  -6.79029    1.08347    2.50554    2.50554    5.47303    7.67112    9.42798    9.42798
 kpt#  11, nband=  8, wtk=  1.00000, kpt=  0.2500  0.0000  0.2500 (reduced coord)
  -6.59063    0.64029    2.31486    2.31486    5.31747    7.30650    9.85766    9.85766
 kpt#  12, nband=  8, wtk=  1.00000, kpt=  0.2750  0.0000  0.2750 (reduced coord)
  -6.37111    0.19674    2.13953    2.13953    5.17783    6.94824   10.29550   10.29550
 kpt#  13, nband=  8, wtk=  1.00000, kpt=  0.3000  0.0000  0.3000 (reduced coord)
  -6.13213   -0.24575    1.98068    1.98068    5.05637    6.60819   10.74054   10.74054
 kpt#  14, nband=  8, wtk=  1.00000, kpt=  0.3250  0.0000  0.3250 (reduced coord)
  -5.87415   -0.68588    1.83888    1.83888    4.95497    6.29272   11.19108   11.19108
 kpt#  15, nband=  8, wtk=  1.00000, kpt=  0.3500  0.0000  0.3500 (reduced coord)
  -5.59763   -1.12230    1.71505    1.71505    4.87531    6.00532   11.64698   11.64698
 kpt#  16, nband=  8, wtk=  1.00000, kpt=  0.3750  0.0000  0.3750 (reduced coord)
  -5.30317   -1.55363    1.60966    1.60966    4.81913    5.74792   12.10752   12.10752
 kpt#  17, nband=  8, wtk=  1.00000, kpt=  0.4000  0.0000  0.4000 (reduced coord)
  -4.99141   -1.97855    1.52284    1.52284    4.78677    5.52095   12.56867   12.56867
 kpt#  18, nband=  8, wtk=  1.00000, kpt=  0.4250  0.0000  0.4250 (reduced coord)
  -4.66305   -2.39565    1.45509    1.45509    4.78001    5.32536   13.03008   13.03008
 kpt#  19, nband=  8, wtk=  1.00000, kpt=  0.4500  0.0000  0.4500 (reduced coord)
  -4.31889   -2.80356    1.40660    1.40660    4.79994    5.16090   13.48148   13.48148
 kpt#  20, nband=  8, wtk=  1.00000, kpt=  0.4750  0.0000  0.4750 (reduced coord)
  -3.95984   -3.20106    1.37743    1.37743    4.84735    5.02696   13.88330   13.88375
 kpt#  21, nband=  8, wtk=  1.00000, kpt=  0.5000  0.0000  0.5000 (reduced coord)
  -3.58685   -3.58685    1.36774    1.36774    4.92291    4.92291   14.08568   14.08628
 kpt#  22, nband=  8, wtk=  1.00000, kpt=  0.5000  0.0250  0.5250 (reduced coord)
  -3.58341   -3.58341    1.33600    1.33600    4.98172    4.98172   13.98867   13.98910
 kpt#  23, nband=  8, wtk=  1.00000, kpt=  0.5000  0.0500  0.5500 (reduced coord)
  -3.57330   -3.57330    1.24790    1.24790    5.15189    5.15189   13.66718   13.67163
 kpt#  24, nband=  8, wtk=  1.00000, kpt=  0.5000  0.0750  0.5750 (reduced coord)
  -3.55731   -3.55731    1.12053    1.12053    5.41640    5.41640   13.15580   13.15581
 kpt#  25, nband=  8, wtk=  1.00000, kpt=  0.5000  0.1000  0.6000 (reduced coord)
  -3.53671   -3.53671    0.97343    0.97343    5.75688    5.75688   12.55482   12.55482
 kpt#  26, nband=  8, wtk=  1.00000, kpt=  0.5000  0.1250  0.6250 (reduced coord)
  -3.51324   -3.51324    0.82372    0.82372    6.15697    6.15697   11.92207   11.92207
 kpt#  27, nband=  8, wtk=  1.00000, kpt=  0.5000  0.1500  0.6500 (reduced coord)
  -3.48915   -3.48915    0.68481    0.68481    6.60396    6.60396   11.28223   11.28223
 kpt#  28, nband=  8, wtk=  1.00000, kpt=  0.5000  0.1750  0.6750 (reduced coord)
  -3.46677   -3.46677    0.56684    0.56684    7.08805    7.08805   10.64861   10.64861
 kpt#  29, nband=  8, wtk=  1.00000, kpt=  0.5000  0.2000  0.7000 (reduced coord)
  -3.44860   -3.44860    0.47728    0.47728    7.59840    7.59840   10.03128   10.03128
 kpt#  30, nband=  8, wtk=  1.00000, kpt=  0.5000  0.2250  0.7250 (reduced coord)
  -3.43671   -3.43671    0.42142    0.42142    8.11250    8.11250    9.45317    9.45317
 kpt#  31, nband=  8, wtk=  1.00000, kpt=  0.5000  0.2500  0.7500 (reduced coord)
  -3.43253   -3.43253    0.40247    0.40247    8.45154    8.45154    9.09381    9.09381
 kpt#  32, nband=  8, wtk=  1.00000, kpt=  0.5000  0.2679  0.7321 (reduced coord)
  -3.66268   -3.20825    0.25284    0.59074    8.24086    8.49620    9.04900    9.34812
 kpt#  33, nband=  8, wtk=  1.00000, kpt=  0.5000  0.2857  0.7143 (reduced coord)
  -3.89059   -3.00044    0.15418    0.80783    8.01756    8.30909    9.28043    9.66144
 kpt#  34, nband=  8, wtk=  1.00000, kpt=  0.5000  0.3036  0.6964 (reduced coord)
  -4.11057   -2.82193    0.12011    1.04531    7.81428    8.07168    9.60676   10.00122
 kpt#  35, nband=  8, wtk=  1.00000, kpt=  0.5000  0.3214  0.6786 (reduced coord)
  -4.31860   -2.68489    0.16318    1.29573    7.63920    7.83524    9.97384   10.35846
 kpt#  36, nband=  8, wtk=  1.00000, kpt=  0.5000  0.3393  0.6607 (reduced coord)
  -4.51182   -2.59615    0.28999    1.55201    7.49673    7.60926   10.36824   10.72750
 kpt#  37, nband=  8, wtk=  1.00000, kpt=  0.5000  0.3571  0.6429 (reduced coord)
  -4.68821   -2.55345    0.49768    1.80686    7.39012    7.39435   10.66531   10.83952
 kpt#  38, nband=  8, wtk=  1.00000, kpt=  0.5000  0.3750  0.6250 (reduced coord)
  -4.84627   -2.54723    0.77487    2.05279    7.18727    7.32071   10.01679   11.26072
 kpt#  39, nband=  8, wtk=  1.00000, kpt=  0.5000  0.3929  0.6071 (reduced coord)
  -4.98489   -2.56492    1.10633    2.28222    6.98208    7.28969    9.38273   11.79892
 kpt#  40, nband=  8, wtk=  1.00000, kpt=  0.5000  0.4107  0.5893 (reduced coord)
  -5.10327   -2.59519    1.47586    2.48771    6.76692    7.29536    8.80908   12.09571
 kpt#  41, nband=  8, wtk=  1.00000, kpt=  0.5000  0.4286  0.5714 (reduced coord)
  -5.20084   -2.62928    1.86621    2.66286    6.52623    7.33234    8.32266   12.22618
 kpt#  42, nband=  8, wtk=  1.00000, kpt=  0.5000  0.4464  0.5536 (reduced coord)
  -5.27713   -2.66096    2.25608    2.80263    6.25079    7.38889    7.94916   12.18102
 kpt#  43, nband=  8, wtk=  1.00000, kpt=  0.5000  0.4643  0.5357 (reduced coord)
  -5.33183   -2.68612    2.61279    2.90385    5.96044    7.45231    7.70061   12.04301
 kpt#  44, nband=  8, wtk=  1.00000, kpt=  0.5000  0.4821  0.5179 (reduced coord)
  -5.36473   -2.70217    2.88134    2.96487    5.72036    7.50136    7.56330   11.92035
 kpt#  45, nband=  8, wtk=  1.00000, kpt=  0.5000  0.5000  0.5000 (reduced coord)
  -5.37574   -2.70767    2.98514    2.98514    5.62352    7.51982    7.51982   11.87319
 kpt#  46, nband=  8, wtk=  1.00000, kpt=  0.4706  0.4706  0.4706 (reduced coord)
  -5.42261   -2.63969    2.99149    2.99149    5.63070    7.52669    7.52669   11.88358
 kpt#  47, nband=  8, wtk=  1.00000, kpt=  0.4412  0.4412  0.4412 (reduced coord)
  -5.55040   -2.44872    3.00997    3.00997    5.65212    7.54615    7.54615   11.91301
 kpt#  48, nband=  8, wtk=  1.00000, kpt=  0.4118  0.4118  0.4118 (reduced coord)
  -5.73148   -2.16256    3.04074    3.04074    5.68818    7.57617    7.57617   11.95603
 kpt#  49, nband=  8, wtk=  1.00000, kpt=  0.3824  0.3824  0.3824 (reduced coord)
  -5.94013   -1.80726    3.08370    3.08370    5.73806    7.61283    7.61283   11.99814
 kpt#  50, nband=  8, wtk=  1.00000, kpt=  0.3529  0.3529  0.3529 (reduced coord)
  -6.15837   -1.40149    3.13870    3.13870    5.80066    7.65020    7.65020   12.03662
 kpt#  51, nband=  8, wtk=  1.00000, kpt=  0.3235  0.3235  0.3235 (reduced coord)
  -6.37482   -0.95715    3.20548    3.20548    5.87650    7.68024    7.68024   11.90605
 kpt#  52, nband=  8, wtk=  1.00000, kpt=  0.2941  0.2941  0.2941 (reduced coord)
  -6.58244   -0.48232    3.28360    3.28360    5.96443    7.69271    7.69271   11.60304
 kpt#  53, nband=  8, wtk=  1.00000, kpt=  0.2647  0.2647  0.2647 (reduced coord)
  -6.77678    0.01711    3.37233    3.37233    6.06334    7.67840    7.67840   11.15433
 kpt#  54, nband=  8, wtk=  1.00000, kpt=  0.2353  0.2353  0.2353 (reduced coord)
  -6.95495    0.53632    3.47050    3.47050    6.17060    7.62534    7.62534   10.65046
 kpt#  55, nband=  8, wtk=  1.00000, kpt=  0.2059  0.2059  0.2059 (reduced coord)
  -7.11497    1.07085    3.57654    3.57654    6.28496    7.53243    7.53243   10.13245
 kpt#  56, nband=  8, wtk=  1.00000, kpt=  0.1765  0.1765  0.1765 (reduced coord)
  -7.25551    1.61569    3.68804    3.68804    6.40246    7.40467    7.40467    9.60336
 kpt#  57, nband=  8, wtk=  1.00000, kpt=  0.1471  0.1471  0.1471 (reduced coord)
  -7.37562    2.16412    3.80161    3.80161    6.51806    7.25454    7.25454    9.07195
 kpt#  58, nband=  8, wtk=  1.00000, kpt=  0.1176  0.1176  0.1176 (reduced coord)
  -7.47465    2.70608    3.91203    3.91203    6.62433    7.09681    7.09681    8.54918
 kpt#  59, nband=  8, wtk=  1.00000, kpt=  0.0882  0.0882  0.0882 (reduced coord)
  -7.55210    3.22460    4.01269    4.01269    6.71108    6.94894    6.94894    8.05529
 kpt#  60, nband=  8, wtk=  1.00000, kpt=  0.0588  0.0588  0.0588 (reduced coord)
  -7.60763    3.68786    4.09507    4.09507    6.75923    6.82744    6.82744    7.63164
 kpt#  61, nband=  8, wtk=  1.00000, kpt=  0.0294  0.0294  0.0294 (reduced coord)
  -7.64105    4.03430    4.14977    4.14977    6.74715    6.74715    6.74763    7.35297
 kpt#  62, nband=  8, wtk=  1.00000, kpt=  0.0000  0.0000  0.0000 (reduced coord)
  -7.65220    4.16904    4.16904    4.16904    6.71902    6.71902    6.71902    7.26628
 kpt#  63, nband=  8, wtk=  1.00000, kpt=  0.0179  0.0179  0.0357 (reduced coord)
  -7.64124    4.05016    4.12179    4.16411    6.73033    6.74142    6.77116    7.34982
 kpt#  64, nband=  8, wtk=  1.00000, kpt=  0.0357  0.0357  0.0714 (reduced coord)
  -7.60838    3.74439    3.98659    4.14902    6.76425    6.80496    6.85967    7.61495
 kpt#  65, nband=  8, wtk=  1.00000, kpt=  0.0536  0.0536  0.1071 (reduced coord)
  -7.55376    3.33704    3.77945    4.12279    6.82076    6.90112    6.92820    8.02381
 kpt#  66, nband=  8, wtk=  1.00000, kpt=  0.0714  0.0714  0.1429 (reduced coord)
  -7.47751    2.88467    3.51933    4.08415    6.89985    6.98446    7.02271    8.49476
 kpt#  67, nband=  8, wtk=  1.00000, kpt=  0.0893  0.0893  0.1786 (reduced coord)
  -7.37991    2.41639    3.22316    4.03136    7.00144    7.03593    7.16369    8.95630
 kpt#  68, nband=  8, wtk=  1.00000, kpt=  0.1071  0.1071  0.2143 (reduced coord)
  -7.26130    1.94748    2.90487    3.96276    7.08370    7.12541    7.32284    9.33914
 kpt#  69, nband=  8, wtk=  1.00000, kpt=  0.1250  0.1250  0.2500 (reduced coord)
  -7.12213    1.48609    2.57534    3.87712    7.12302    7.27188    7.49992    9.58689
 kpt#  70, nband=  8, wtk=  1.00000, kpt=  0.1429  0.1429  0.2857 (reduced coord)
  -6.96300    1.03706    2.24290    3.77370    7.14580    7.44035    7.69452    9.70030
 kpt#  71, nband=  8, wtk=  1.00000, kpt=  0.1607  0.1607  0.3214 (reduced coord)
  -6.78466    0.60347    1.91431    3.65295    7.14361    7.63129    7.90779    9.73804
 kpt#  72, nband=  8, wtk=  1.00000, kpt=  0.1786  0.1786  0.3571 (reduced coord)
  -6.58805    0.18739    1.59491    3.51617    7.10714    7.84433    8.14021    9.75980
 kpt#  73, nband=  8, wtk=  1.00000, kpt=  0.1964  0.1964  0.3929 (reduced coord)
  -6.37445   -0.21004    1.28915    3.36540    7.03142    8.07897    8.39123    9.80461
 kpt#  74, nband=  8, wtk=  1.00000, kpt=  0.2143  0.2143  0.4286 (reduced coord)
  -6.14541   -0.58758    1.00116    3.20377    6.91753    8.33544    8.66196    9.88954
 kpt#  75, nband=  8, wtk=  1.00000, kpt=  0.2321  0.2321  0.4643 (reduced coord)
  -5.90301   -0.94451    0.73481    3.03465    6.77182    8.61395    8.95243   10.02143
 kpt#  76, nband=  8, wtk=  1.00000, kpt=  0.2500  0.2500  0.5000 (reduced coord)
  -5.64990   -1.28023    0.49404    2.86157    6.60345    8.91294    9.26145   10.19731
 kpt#  77, nband=  8, wtk=  1.00000, kpt=  0.2679  0.2679  0.5357 (reduced coord)
  -5.38956   -1.59420    0.28311    2.68797    6.42189    9.23280    9.58809   10.41254
 kpt#  78, nband=  8, wtk=  1.00000, kpt=  0.2857  0.2857  0.5714 (reduced coord)
  -5.12645   -1.88612    0.10698    2.51694    6.23531    9.57271    9.92678   10.66045
 kpt#  79, nband=  8, wtk=  1.00000, kpt=  0.3036  0.3036  0.6071 (reduced coord)
  -4.86626   -2.15563   -0.02872    2.35134    6.05007    9.93222   10.25234   10.93644
 kpt#  80, nband=  8, wtk=  1.00000, kpt=  0.3214  0.3214  0.6429 (reduced coord)
  -4.61588   -2.40238   -0.11741    2.19362    5.87173   10.31100   10.32169   11.02744
 kpt#  81, nband=  8, wtk=  1.00000, kpt=  0.3393  0.3393  0.6786 (reduced coord)
  -4.38333   -2.62627   -0.15226    2.04575    5.70272    9.73051   10.70645   11.25315
 kpt#  82, nband=  8, wtk=  1.00000, kpt=  0.3571  0.3571  0.7143 (reduced coord)
  -4.17645   -2.82711   -0.12676    1.90958    5.54641    9.00682   11.11869   11.65998
 kpt#  83, nband=  8, wtk=  1.00000, kpt=  0.3750  0.3750  0.7500 (reduced coord)
  -4.00180   -3.00465   -0.03702    1.78662    5.40493    8.28578   11.54520   12.11269
 kpt#  84, nband=  8, wtk=  1.00000, kpt=  0.3828  0.3516  0.7344 (reduced coord)
  -4.06503   -2.93371   -0.07716    1.78442    5.54689    8.60449   11.15359   11.76520
 kpt#  85, nband=  8, wtk=  1.00000, kpt=  0.3906  0.3281  0.7188 (reduced coord)
  -4.11721   -2.86669   -0.09063    1.69200    5.84008    8.93253   10.62376   11.13666
 kpt#  86, nband=  8, wtk=  1.00000, kpt=  0.3984  0.3047  0.7031 (reduced coord)
  -4.15832   -2.80569   -0.07757    1.54345    6.25169    9.23329   10.12081   10.51024
 kpt#  87, nband=  8, wtk=  1.00000, kpt=  0.4063  0.2813  0.6875 (reduced coord)
  -4.18808   -2.75399   -0.03849    1.37300    6.74822    9.23807    9.89694    9.93477
 kpt#  88, nband=  8, wtk=  1.00000, kpt=  0.4141  0.2578  0.6719 (reduced coord)
  -4.20623   -2.71596    0.02572    1.20727    7.30119    8.79679    9.30678   10.22051
 kpt#  89, nband=  8, wtk=  1.00000, kpt=  0.4219  0.2344  0.6563 (reduced coord)
  -4.21243   -2.69648    0.11380    1.06532    7.86678    8.28060    8.77079   10.61038
 kpt#  90, nband=  8, wtk=  1.00000, kpt=  0.4297  0.2109  0.6406 (reduced coord)
  -4.20635   -2.70024    0.22400    0.96015    7.76637    8.01347    8.71367   11.03032
 kpt#  91, nband=  8, wtk=  1.00000, kpt=  0.4375  0.1875  0.6250 (reduced coord)
  -4.18769   -2.73028    0.35393    0.89939    7.26881    7.55398    9.31682   11.46697
 kpt#  92, nband=  8, wtk=  1.00000, kpt=  0.4453  0.1641  0.6094 (reduced coord)
  -4.15617   -2.78717    0.50048    0.88543    6.79603    7.06389   10.00279   11.91422
 kpt#  93, nband=  8, wtk=  1.00000, kpt=  0.4531  0.1406  0.5938 (reduced coord)
  -4.11168   -2.86870    0.65917    0.91538    6.35392    6.59723   10.71452   12.36294
 kpt#  94, nband=  8, wtk=  1.00000, kpt=  0.4609  0.1172  0.5781 (reduced coord)
  -4.05420   -2.97029    0.82407    0.98185    5.95008    6.16599   11.43904   12.80216
 kpt#  95, nband=  8, wtk=  1.00000, kpt=  0.4688  0.0938  0.5625 (reduced coord)
  -3.98396   -3.08630    0.98693    1.07356    5.59410    5.77878   12.16300   13.21012
 kpt#  96, nband=  8, wtk=  1.00000, kpt=  0.4766  0.0703  0.5469 (reduced coord)
  -3.90123   -3.21076    1.13667    1.17603    5.29846    5.44689   12.86769   13.56451
 kpt#  97, nband=  8, wtk=  1.00000, kpt=  0.4844  0.0469  0.5313 (reduced coord)
  -3.80671   -3.33845    1.25927    1.27178    5.07784    5.18311   13.50378   13.82558
 kpt#  98, nband=  8, wtk=  1.00000, kpt=  0.4922  0.0234  0.5156 (reduced coord)
  -3.70144   -3.46498    1.33991    1.34156    4.94850    5.00352   13.95060   14.00603
 kpt#  99, nband=  8, wtk=  1.00000, kpt=  0.5000  0.0000  0.5000 (reduced coord)
  -3.58685   -3.58685    1.36774    1.36774    4.92291    4.92291   14.08568   14.08628

== END DATASET(S) ==============================================================
================================================================================
  
 -outvars: echo values of variables after computation  --------
            acell      1.0336000000E+01  1.0336000000E+01  1.0336000000E+01 Bohr
              amu      2.80855000E+01
           diemac1     1.20000000E+01
           diemac2     1.00000000E+06
             ecut      1.20000000E+01 Hartree
           enunit1          0
           enunit2          1
           etotal1    -8.4621830122E+00
            fcart1     0.0000000000E+00  0.0000000000E+00  2.0840907300E-28
                       0.0000000000E+00  0.0000000000E+00 -2.0840907300E-28
-          fftalg         312
           getden1          0
           getden2         -1
             iscf1          7
             iscf2         -2
           istwfk2       2    0    0    0    0    0    0    0    0    0
                         0    0    0    0    0    0    0    0    0    0
                         5    0    0    0    0    0    0    0    0    0
                         0    0    0    0    0    0    0    0    0    0
                         0    0    0    0    9    0    0    0    0    0
                       outvar_i_n : Printing only first  50 k-points.
              ixc          11
           jdtset        1    2
              kpt1    -1.25000000E-01 -2.50000000E-01  0.00000000E+00
                      -1.25000000E-01  5.00000000E-01  0.00000000E+00
                      -2.50000000E-01 -3.75000000E-01  0.00000000E+00
                      -1.25000000E-01 -3.75000000E-01  1.25000000E-01
                      -1.25000000E-01  2.50000000E-01  0.00000000E+00
                      -2.50000000E-01  3.75000000E-01  0.00000000E+00
                      -3.75000000E-01  5.00000000E-01  0.00000000E+00
                      -2.50000000E-01  5.00000000E-01  1.25000000E-01
                      -1.25000000E-01  0.00000000E+00  0.00000000E+00
                      -3.75000000E-01  0.00000000E+00  0.00000000E+00
              kpt2     0.00000000E+00  0.00000000E+00  0.00000000E+00
                       2.50000000E-02  0.00000000E+00  2.50000000E-02
                       5.00000000E-02  0.00000000E+00  5.00000000E-02
                       7.50000000E-02  0.00000000E+00  7.50000000E-02
                       1.00000000E-01  0.00000000E+00  1.00000000E-01
                       1.25000000E-01  0.00000000E+00  1.25000000E-01
                       1.50000000E-01  0.00000000E+00  1.50000000E-01
                       1.75000000E-01  0.00000000E+00  1.75000000E-01
                       2.00000000E-01  0.00000000E+00  2.00000000E-01
                       2.25000000E-01  0.00000000E+00  2.25000000E-01
                       2.50000000E-01  0.00000000E+00  2.50000000E-01
                       2.75000000E-01  0.00000000E+00  2.75000000E-01
                       3.00000000E-01  0.00000000E+00  3.00000000E-01
                       3.25000000E-01  0.00000000E+00  3.25000000E-01
                       3.50000000E-01  0.00000000E+00  3.50000000E-01
                       3.75000000E-01  0.00000000E+00  3.75000000E-01
                       4.00000000E-01  0.00000000E+00  4.00000000E-01
                       4.25000000E-01  0.00000000E+00  4.25000000E-01
                       4.50000000E-01  0.00000000E+00  4.50000000E-01
                       4.75000000E-01  0.00000000E+00  4.75000000E-01
                       5.00000000E-01  0.00000000E+00  5.00000000E-01
                       5.00000000E-01  2.50000000E-02  5.25000000E-01
                       5.00000000E-01  5.00000000E-02  5.50000000E-01
                       5.00000000E-01  7.50000000E-02  5.75000000E-01
                       5.00000000E-01  1.00000000E-01  6.00000000E-01
                       5.00000000E-01  1.25000000E-01  6.25000000E-01
                       5.00000000E-01  1.50000000E-01  6.50000000E-01
                       5.00000000E-01  1.75000000E-01  6.75000000E-01
                       5.00000000E-01  2.00000000E-01  7.00000000E-01
                       5.00000000E-01  2.25000000E-01  7.25000000E-01
                       5.00000000E-01  2.50000000E-01  7.50000000E-01
                       5.00000000E-01  2.67857143E-01  7.32142857E-01
                       5.00000000E-01  2.85714286E-01  7.14285714E-01
                       5.00000000E-01  3.03571429E-01  6.96428571E-01
                       5.00000000E-01  3.21428571E-01  6.78571429E-01
                       5.00000000E-01  3.39285714E-01  6.60714286E-01
                       5.00000000E-01  3.57142857E-01  6.42857143E-01
                       5.00000000E-01  3.75000000E-01  6.25000000E-01
                       5.00000000E-01  3.92857143E-01  6.07142857E-01
                       5.00000000E-01  4.10714286E-01  5.89285714E-01
                       5.00000000E-01  4.28571429E-01  5.71428571E-01
                       5.00000000E-01  4.46428571E-01  5.53571429E-01
                       5.00000000E-01  4.64285714E-01  5.35714286E-01
                       5.00000000E-01  4.82142857E-01  5.17857143E-01
                       5.00000000E-01  5.00000000E-01  5.00000000E-01
                       4.70588235E-01  4.70588235E-01  4.70588235E-01
                       4.41176471E-01  4.41176471E-01  4.41176471E-01
                       4.11764706E-01  4.11764706E-01  4.11764706E-01
                       3.82352941E-01  3.82352941E-01  3.82352941E-01
                       3.52941176E-01  3.52941176E-01  3.52941176E-01
                       outvar_i_n : Printing only first  50 k-points.
           kptopt1          1
           kptopt2         -6
         kptrlatt        4   -4    4     -4    4    4     -4   -4    4
          kptrlen1     4.13440000E+01
          kptrlen2     3.00000000E+01
P           mkmem1         10
P           mkmem2         99
            natom           2
            nband1          5
            nband2          8
           nbdbuf1          0
           nbdbuf2          2
           ndtset           2
           ndivsm1          0
           ndivsm2         10
            ngfft          24      24      24
             nkpt1         10
             nkpt2         99
            nstep1         20
            nstep2         30
             nsym          48
           ntypat           1
              occ      2.000000  2.000000  2.000000  2.000000  0.000000
            rprim      0.0000000000E+00  5.0000000000E-01  5.0000000000E-01
                       5.0000000000E-01  0.0000000000E+00  5.0000000000E-01
                       5.0000000000E-01  5.0000000000E-01  0.0000000000E+00
           shiftk      5.00000000E-01  5.00000000E-01  5.00000000E-01
          spgroup         227
           strten1     2.8263974754E-06  2.8263974754E-06  2.8263974754E-06
                       0.0000000000E+00  0.0000000000E+00  0.0000000000E+00
           symrel      1  0  0   0  1  0   0  0  1      -1  0  0   0 -1  0   0  0 -1
                       0 -1  1   0 -1  0   1 -1  0       0  1 -1   0  1  0  -1  1  0
                      -1  0  0  -1  0  1  -1  1  0       1  0  0   1  0 -1   1 -1  0
                       0  1 -1   1  0 -1   0  0 -1       0 -1  1  -1  0  1   0  0  1
                      -1  0  0  -1  1  0  -1  0  1       1  0  0   1 -1  0   1  0 -1
                       0 -1  1   1 -1  0   0 -1  0       0  1 -1  -1  1  0   0  1  0
                       1  0  0   0  0  1   0  1  0      -1  0  0   0  0 -1   0 -1  0
                       0  1 -1   0  0 -1   1  0 -1       0 -1  1   0  0  1  -1  0  1
                      -1  0  1  -1  1  0  -1  0  0       1  0 -1   1 -1  0   1  0  0
                       0 -1  0   1 -1  0   0 -1  1       0  1  0  -1  1  0   0  1 -1
                       1  0 -1   0  0 -1   0  1 -1      -1  0  1   0  0  1   0 -1  1
                       0  1  0   0  0  1   1  0  0       0 -1  0   0  0 -1  -1  0  0
                       1  0 -1   0  1 -1   0  0 -1      -1  0  1   0 -1  1   0  0  1
                       0 -1  0   0 -1  1   1 -1  0       0  1  0   0  1 -1  -1  1  0
                      -1  0  1  -1  0  0  -1  1  0       1  0 -1   1  0  0   1 -1  0
                       0  1  0   1  0  0   0  0  1       0 -1  0  -1  0  0   0  0 -1
                       0  0 -1   0  1 -1   1  0 -1       0  0  1   0 -1  1  -1  0  1
                       1 -1  0   0 -1  1   0 -1  0      -1  1  0   0  1 -1   0  1  0
                       0  0  1   1  0  0   0  1  0       0  0 -1  -1  0  0   0 -1  0
                      -1  1  0  -1  0  0  -1  0  1       1 -1  0   1  0  0   1  0 -1
                       0  0  1   0  1  0   1  0  0       0  0 -1   0 -1  0  -1  0  0
                       1 -1  0   0 -1  0   0 -1  1      -1  1  0   0  1  0   0  1 -1
                       0  0 -1   1  0 -1   0  1 -1       0  0  1  -1  0  1   0 -1  1
                      -1  1  0  -1  0  1  -1  0  0       1 -1  0   1  0 -1   1  0  0
            tnons      0.0000000  0.0000000  0.0000000     0.2500000  0.2500000  0.2500000
                       0.0000000  0.0000000  0.0000000     0.2500000  0.2500000  0.2500000
                       0.0000000  0.0000000  0.0000000     0.2500000  0.2500000  0.2500000
                       0.0000000  0.0000000  0.0000000     0.2500000  0.2500000  0.2500000
                       0.0000000  0.0000000  0.0000000     0.2500000  0.2500000  0.2500000
                       0.0000000  0.0000000  0.0000000     0.2500000  0.2500000  0.2500000
                       0.0000000  0.0000000  0.0000000     0.2500000  0.2500000  0.2500000
                       0.0000000  0.0000000  0.0000000     0.2500000  0.2500000  0.2500000
                       0.0000000  0.0000000  0.0000000     0.2500000  0.2500000  0.2500000
                       0.0000000  0.0000000  0.0000000     0.2500000  0.2500000  0.2500000
                       0.0000000  0.0000000  0.0000000     0.2500000  0.2500000  0.2500000
                       0.0000000  0.0000000  0.0000000     0.2500000  0.2500000  0.2500000
                       0.0000000  0.0000000  0.0000000     0.2500000  0.2500000  0.2500000
                       0.0000000  0.0000000  0.0000000     0.2500000  0.2500000  0.2500000
                       0.0000000  0.0000000  0.0000000     0.2500000  0.2500000  0.2500000
                       0.0000000  0.0000000  0.0000000     0.2500000  0.2500000  0.2500000
                       0.0000000  0.0000000  0.0000000     0.2500000  0.2500000  0.2500000
                       0.0000000  0.0000000  0.0000000     0.2500000  0.2500000  0.2500000
                       0.0000000  0.0000000  0.0000000     0.2500000  0.2500000  0.2500000
                       0.0000000  0.0000000  0.0000000     0.2500000  0.2500000  0.2500000
                       0.0000000  0.0000000  0.0000000     0.2500000  0.2500000  0.2500000
                       0.0000000  0.0000000  0.0000000     0.2500000  0.2500000  0.2500000
                       0.0000000  0.0000000  0.0000000     0.2500000  0.2500000  0.2500000
                       0.0000000  0.0000000  0.0000000     0.2500000  0.2500000  0.2500000
           toldfe1     1.00000000E-06 Hartree
           toldfe2     0.00000000E+00 Hartree
           tolwfr1     0.00000000E+00
           tolwfr2     1.00000000E-12
            typat      1  1
              wtk1       0.09375    0.09375    0.09375    0.18750    0.09375    0.09375
                         0.09375    0.18750    0.03125    0.03125
              wtk2       1.00000    1.00000    1.00000    1.00000    1.00000    1.00000
                         1.00000    1.00000    1.00000    1.00000    1.00000    1.00000
                         1.00000    1.00000    1.00000    1.00000    1.00000    1.00000
                         1.00000    1.00000    1.00000    1.00000    1.00000    1.00000
                         1.00000    1.00000    1.00000    1.00000    1.00000    1.00000
                         1.00000    1.00000    1.00000    1.00000    1.00000    1.00000
                         1.00000    1.00000    1.00000    1.00000    1.00000    1.00000
                         1.00000    1.00000    1.00000    1.00000    1.00000    1.00000
                         1.00000    1.00000
                       outvars : Printing only first  50 k-points.
           xangst      0.0000000000E+00  0.0000000000E+00  0.0000000000E+00
                       1.3673939070E+00  1.3673939070E+00  1.3673939070E+00
            xcart      0.0000000000E+00  0.0000000000E+00  0.0000000000E+00
                       2.5840000000E+00  2.5840000000E+00  2.5840000000E+00
             xred      0.0000000000E+00  0.0000000000E+00  0.0000000000E+00
                       2.5000000000E-01  2.5000000000E-01  2.5000000000E-01
            znucl       14.00000

================================================================================


- Timing analysis has been suppressed with timopt=0



================================================================================

 Suggested references for the acknowledgment of ABINIT usage.

 The users of ABINIT have little formal obligations with respect to the ABINIT group
 (those specified in the GNU General Public License, http://www.gnu.org/copyleft/gpl.txt).
 However, it is common practice in the scientific literature,
 to acknowledge the efforts of people that have made the research possible.
 In this spirit, please find below suggested citations of work written by ABINIT developers,
 corresponding to implementations inside of ABINIT that you have used in the present run.
 Note also that it will be of great value to readers of publications presenting these results,
 to read papers enabling them to understand the theoretical formalism and details
 of the ABINIT implementation.
 For information on why they are suggested, see also https://docs.abinit.org/theory/acknowledgments.
-
- [1] The Abinit project: Impact, environment and recent developments.
- Computer Phys. Comm. 248, 107042 (2020).
- X.Gonze, B. Amadon, G. Antonius, F.Arnardi, L.Baguet, J.-M.Beuken,
- J.Bieder, F.Bottin, J.Bouchet, E.Bousquet, N.Brouwer, F.Bruneval,
- G.Brunin, T.Cavignac, J.-B. Charraud, Wei Chen, M.Cote, S.Cottenier,
- J.Denier, G.Geneste, Ph.Ghosez, M.Giantomassi, Y.Gillet, O.Gingras,
- D.R.Hamann, G.Hautier, Xu He, N.Helbig, N.Holzwarth, Y.Jia, F.Jollet,
- W.Lafargue-Dit-Hauret, K.Lejaeghere, M.A.L.Marques, A.Martin, C.Martins,
- H.P.C. Miranda, F.Naccarato, K. Persson, G.Petretto, V.Planes, Y.Pouillon,
- S.Prokhorenko, F.Ricci, G.-M.Rignanese, A.H.Romero, M.M.Schmitt, M.Torrent,
- M.J.van Setten, B.Van Troeye, M.J.Verstraete, G.Zerah and J.W.Zwanzig
- Comment: the fifth generic paper describing the ABINIT project.
- Note that a version of this paper, that is not formatted for Computer Phys. Comm. 
- is available at https://www.abinit.org/sites/default/files/ABINIT20.pdf .
- The licence allows the authors to put it on the Web.
- DOI and bibtex: see https://docs.abinit.org/theory/bibliography/#gonze2020
-
- [2] Optimized norm-conserving Vanderbilt pseudopotentials.
- D.R. Hamann, Phys. Rev. B 88, 085117 (2013).
- Comment: Some pseudopotential generated using the ONCVPSP code were used.
- DOI and bibtex: see https://docs.abinit.org/theory/bibliography/#hamann2013
-
- [3] ABINIT: Overview, and focus on selected capabilities
- J. Chem. Phys. 152, 124102 (2020).
- A. Romero, D.C. Allan, B. Amadon, G. Antonius, T. Applencourt, L.Baguet,
- J.Bieder, F.Bottin, J.Bouchet, E.Bousquet, F.Bruneval,
- G.Brunin, D.Caliste, M.Cote,
- J.Denier, C. Dreyer, Ph.Ghosez, M.Giantomassi, Y.Gillet, O.Gingras,
- D.R.Hamann, G.Hautier, F.Jollet, G. Jomard,
- A.Martin, 
- H.P.C. Miranda, F.Naccarato, G.Petretto, N.A. Pike, V.Planes,
- S.Prokhorenko, T. Rangel, F.Ricci, G.-M.Rignanese, M.Royo, M.Stengel, M.Torrent,
- M.J.van Setten, B.Van Troeye, M.J.Verstraete, J.Wiktor, J.W.Zwanziger, and X.Gonze.
- Comment: a global overview of ABINIT, with focus on selected capabilities .
- Note that a version of this paper, that is not formatted for J. Chem. Phys 
- is available at https://www.abinit.org/sites/default/files/ABINIT20_JPC.pdf .
- The licence allows the authors to put it on the Web.
- DOI and bibtex: see https://docs.abinit.org/theory/bibliography/#romero2020
-
- [4] Recent developments in the ABINIT software package.
- Computer Phys. Comm. 205, 106 (2016).
- X.Gonze, F.Jollet, F.Abreu Araujo, D.Adams, B.Amadon, T.Applencourt,
- C.Audouze, J.-M.Beuken, J.Bieder, A.Bokhanchuk, E.Bousquet, F.Bruneval
- D.Caliste, M.Cote, F.Dahm, F.Da Pieve, M.Delaveau, M.Di Gennaro,
- B.Dorado, C.Espejo, G.Geneste, L.Genovese, A.Gerossier, M.Giantomassi,
- Y.Gillet, D.R.Hamann, L.He, G.Jomard, J.Laflamme Janssen, S.Le Roux,
- A.Levitt, A.Lherbier, F.Liu, I.Lukacevic, A.Martin, C.Martins,
- M.J.T.Oliveira, S.Ponce, Y.Pouillon, T.Rangel, G.-M.Rignanese,
- A.H.Romero, B.Rousseau, O.Rubel, A.A.Shukri, M.Stankovski, M.Torrent,
- M.J.Van Setten, B.Van Troeye, M.J.Verstraete, D.Waroquier, J.Wiktor,
- B.Xu, A.Zhou, J.W.Zwanziger.
- Comment: the fourth generic paper describing the ABINIT project.
- Note that a version of this paper, that is not formatted for Computer Phys. Comm. 
- is available at https://www.abinit.org/sites/default/files/ABINIT16.pdf .
- The licence allows the authors to put it on the Web.
- DOI and bibtex: see https://docs.abinit.org/theory/bibliography/#gonze2016
-
- And optionally:
-
- [5] ABINIT: First-principles approach of materials and nanosystem properties.
- Computer Phys. Comm. 180, 2582-2615 (2009).
- X. Gonze, B. Amadon, P.-M. Anglade, J.-M. Beuken, F. Bottin, P. Boulanger, F. Bruneval,
- D. Caliste, R. Caracas, M. Cote, T. Deutsch, L. Genovese, Ph. Ghosez, M. Giantomassi
- S. Goedecker, D.R. Hamann, P. Hermet, F. Jollet, G. Jomard, S. Leroux, M. Mancini, S. Mazevet,
- M.J.T. Oliveira, G. Onida, Y. Pouillon, T. Rangel, G.-M. Rignanese, D. Sangalli, R. Shaltaf,
- M. Torrent, M.J. Verstraete, G. Zerah, J.W. Zwanziger
- Comment: the third generic paper describing the ABINIT project.
- Note that a version of this paper, that is not formatted for Computer Phys. Comm. 
- is available at https://www.abinit.org/sites/default/files/ABINIT_CPC_v10.pdf .
- The licence allows the authors to put it on the Web.
- DOI and bibtex: see https://docs.abinit.org/theory/bibliography/#gonze2009
-
- Proc.   0 individual time (sec): cpu=        165.9  wall=          9.1

================================================================================

 Calculation completed.
.Delivered   2 WARNINGs and   5 COMMENTs to log file.
+Overall time at end (sec) : cpu=        165.9  wall=          9.1
