
.Version 9.8.4 of ABINIT 
.(MPI version, prepared for a x86_64_linux_gnu12.3 computer) 

.Copyright (C) 1998-2022 ABINIT group . 
 ABINIT comes with ABSOLUTELY NO WARRANTY.
 It is free software, and you are welcome to redistribute it
 under certain conditions (GNU General Public License,
 see ~abinit/COPYING or http://www.gnu.org/copyleft/gpl.txt).

 ABINIT is a project of the Universite Catholique de Louvain,
 Corning Inc. and other collaborators, see ~abinit/doc/developers/contributors.txt .
 Please read https://docs.abinit.org/theory/acknowledgments for suggested
 acknowledgments of the ABINIT effort.
 For more information, see https://www.abinit.org .

.Starting date : Thu  4 Apr 2024.
- ( at 14h01 )
  
- input  file    -> 1_response.abi
- output file    -> 1_response.abo
- root for input  files -> 1_responsei
- root for output files -> ./outdata/1_response/response


 DATASET    1 : space group Fd -3 m (#227); Bravais cF (face-center cubic)
================================================================================
 Values of the parameters that define the memory need for DATASET  1.
     intxc =       0    ionmov =       0      iscf =       7    lmnmax =       6
     lnmax =       6     mgfft =      24  mpssoang =       3    mqgrid =    3001
     natom =       2  nloc_mem =       1    nspden =       1   nspinor =       1
    nsppol =       1      nsym =      48    n1xccc =    2501    ntypat =       1
    occopt =       1   xclevel =       2
-    mband =           5        mffmem =           1         mkmem =           1
       mpw =         560          nfft =       13824          nkpt =           8
================================================================================
P This job should need less than                       5.222 Mbytes of memory.
  Rough estimation (10% accuracy) of disk space for files :
_ WF disk file :      0.344 Mbytes ; DEN or POT disk file :      0.107 Mbytes.
================================================================================


 DATASET    2 : space group Fd -3 m (#227); Bravais cF (face-center cubic)
================================================================================
 Values of the parameters that define the memory need for DATASET  2 (RF).
     intxc =       0      iscf =       7    lmnmax =       6     lnmax =       6
     mgfft =      24  mpssoang =       3    mqgrid =    3001     natom =       2
  nloc_mem =       1    nspden =       1   nspinor =       1    nsppol =       1
      nsym =      48    n1xccc =    2501    ntypat =       1    occopt =       1
   xclevel =       2
-    mband =           5        mffmem =           1         mkmem =           6
-   mkqmem =           6        mk1mem =           6           mpw =         568
      nfft =       13824          nkpt =          64
================================================================================
P This job should need less than                       4.713 Mbytes of memory.
  Rough estimation (10% accuracy) of disk space for files :
_ WF disk file :      2.775 Mbytes ; DEN or POT disk file :      0.107 Mbytes.
================================================================================


 DATASET    3 : space group Fd -3 m (#227); Bravais cF (face-center cubic)
================================================================================
 Values of the parameters that define the memory need for DATASET  3 (RF).
     intxc =       0      iscf =       7    lmnmax =       6     lnmax =       6
     mgfft =      24  mpssoang =       3    mqgrid =    3001     natom =       2
  nloc_mem =       1    nspden =       1   nspinor =       1    nsppol =       1
      nsym =      48    n1xccc =    2501    ntypat =       1    occopt =       1
   xclevel =       2
-    mband =           5        mffmem =           1         mkmem =           6
-   mkqmem =           6        mk1mem =           6           mpw =         568
      nfft =       13824          nkpt =          64
================================================================================
P This job should need less than                       5.469 Mbytes of memory.
  Rough estimation (10% accuracy) of disk space for files :
_ WF disk file :      2.775 Mbytes ; DEN or POT disk file :      0.107 Mbytes.
================================================================================


 DATASET    4 : space group Fd -3 m (#227); Bravais cF (face-center cubic)
================================================================================
 Values of the parameters that define the memory need for DATASET  4 (RF).
     intxc =       0      iscf =       7    lmnmax =       6     lnmax =       6
     mgfft =      24  mpssoang =       3    mqgrid =    3001     natom =       2
  nloc_mem =       1    nspden =       1   nspinor =       1    nsppol =       1
      nsym =      48    n1xccc =    2501    ntypat =       1    occopt =       1
   xclevel =       2
-    mband =           5        mffmem =           1         mkmem =           6
-   mkqmem =           6        mk1mem =           6           mpw =         568
      nfft =       13824          nkpt =          64
================================================================================
P This job should need less than                       5.469 Mbytes of memory.
  Rough estimation (10% accuracy) of disk space for files :
_ WF disk file :      2.775 Mbytes ; DEN or POT disk file :      0.107 Mbytes.
================================================================================


 DATASET    5 : space group Fd -3 m (#227); Bravais cF (face-center cubic)
================================================================================
 Values of the parameters that define the memory need for DATASET  5 (RF).
     intxc =       0      iscf =       7    lmnmax =       6     lnmax =       6
     mgfft =      24  mpssoang =       3    mqgrid =    3001     natom =       2
  nloc_mem =       1    nspden =       1   nspinor =       1    nsppol =       1
      nsym =      48    n1xccc =    2501    ntypat =       1    occopt =       1
   xclevel =       2
-    mband =           5        mffmem =           1         mkmem =           6
-   mkqmem =           6        mk1mem =           6           mpw =         568
      nfft =       13824          nkpt =          64
================================================================================
P This job should need less than                       5.469 Mbytes of memory.
  Rough estimation (10% accuracy) of disk space for files :
_ WF disk file :      2.775 Mbytes ; DEN or POT disk file :      0.107 Mbytes.
================================================================================


 DATASET    6 : space group Fd -3 m (#227); Bravais cF (face-center cubic)
================================================================================
 Values of the parameters that define the memory need for DATASET  6 (RF).
     intxc =       0      iscf =       7    lmnmax =       6     lnmax =       6
     mgfft =      24  mpssoang =       3    mqgrid =    3001     natom =       2
  nloc_mem =       1    nspden =       1   nspinor =       1    nsppol =       1
      nsym =      48    n1xccc =    2501    ntypat =       1    occopt =       1
   xclevel =       2
-    mband =           5        mffmem =           1         mkmem =           6
-   mkqmem =           6        mk1mem =           6           mpw =         568
      nfft =       13824          nkpt =          64
================================================================================
P This job should need less than                       5.469 Mbytes of memory.
  Rough estimation (10% accuracy) of disk space for files :
_ WF disk file :      2.775 Mbytes ; DEN or POT disk file :      0.107 Mbytes.
================================================================================


 DATASET    7 : space group Fd -3 m (#227); Bravais cF (face-center cubic)
================================================================================
 Values of the parameters that define the memory need for DATASET  7 (RF).
     intxc =       0      iscf =       7    lmnmax =       6     lnmax =       6
     mgfft =      24  mpssoang =       3    mqgrid =    3001     natom =       2
  nloc_mem =       1    nspden =       1   nspinor =       1    nsppol =       1
      nsym =      48    n1xccc =    2501    ntypat =       1    occopt =       1
   xclevel =       2
-    mband =           5        mffmem =           1         mkmem =           6
-   mkqmem =           6        mk1mem =           6           mpw =         568
      nfft =       13824          nkpt =          64
================================================================================
P This job should need less than                       5.469 Mbytes of memory.
  Rough estimation (10% accuracy) of disk space for files :
_ WF disk file :      2.775 Mbytes ; DEN or POT disk file :      0.107 Mbytes.
================================================================================


 DATASET    8 : space group Fd -3 m (#227); Bravais cF (face-center cubic)
================================================================================
 Values of the parameters that define the memory need for DATASET  8 (RF).
     intxc =       0      iscf =       7    lmnmax =       6     lnmax =       6
     mgfft =      24  mpssoang =       3    mqgrid =    3001     natom =       2
  nloc_mem =       1    nspden =       1   nspinor =       1    nsppol =       1
      nsym =      48    n1xccc =    2501    ntypat =       1    occopt =       1
   xclevel =       2
-    mband =           5        mffmem =           1         mkmem =           6
-   mkqmem =           6        mk1mem =           6           mpw =         568
      nfft =       13824          nkpt =          64
================================================================================
P This job should need less than                       5.469 Mbytes of memory.
  Rough estimation (10% accuracy) of disk space for files :
_ WF disk file :      2.775 Mbytes ; DEN or POT disk file :      0.107 Mbytes.
================================================================================


 DATASET    9 : space group Fd -3 m (#227); Bravais cF (face-center cubic)
================================================================================
 Values of the parameters that define the memory need for DATASET  9 (RF).
     intxc =       0      iscf =       7    lmnmax =       6     lnmax =       6
     mgfft =      24  mpssoang =       3    mqgrid =    3001     natom =       2
  nloc_mem =       1    nspden =       1   nspinor =       1    nsppol =       1
      nsym =      48    n1xccc =    2501    ntypat =       1    occopt =       1
   xclevel =       2
-    mband =           5        mffmem =           1         mkmem =           6
-   mkqmem =           6        mk1mem =           6           mpw =         568
      nfft =       13824          nkpt =          64
================================================================================
P This job should need less than                       5.469 Mbytes of memory.
  Rough estimation (10% accuracy) of disk space for files :
_ WF disk file :      2.775 Mbytes ; DEN or POT disk file :      0.107 Mbytes.
================================================================================

--------------------------------------------------------------------------------
------------- Echo of variables that govern the present computation ------------
--------------------------------------------------------------------------------
-
- outvars: echo of selected default values                                      
-   iomode0 =  0 , fftalg0 =312 , wfoptalg0 =  0
-
- outvars: echo of global parameters not present in the input file              
-  max_nthreads =    0
-
 -outvars: echo values of preprocessed input variables --------
            acell      1.0336000000E+01  1.0336000000E+01  1.0336000000E+01 Bohr
              amu      2.80855000E+01
           diemac      1.20000000E+01
             ecut      1.20000000E+01 Hartree
-          fftalg         312
           getwfk1          0
           getwfk2          1
           getwfk3          1
           getwfk4          1
           getwfk5          1
           getwfk6          1
           getwfk7          1
           getwfk8          1
           getwfk9          1
           istwfk1       2    0    3    0    0    0    7    0
           istwfk2       1    0    1    0    0    0    0    0    1    0
                         1    0    0    0    0    0    0    0    0    0
                         0    0    0    0    0    0    0    0    0    0
                         0    0    1    0    1    0    0    0    0    0
                         1    0    1    0    0    0    0    0    0    0
           istwfk3       1    0    1    0    0    0    0    0    1    0
                         1    0    0    0    0    0    0    0    0    0
                         0    0    0    0    0    0    0    0    0    0
                         0    0    1    0    1    0    0    0    0    0
                         1    0    1    0    0    0    0    0    0    0
           istwfk4       1    0    1    0    0    0    0    0    1    0
                         1    0    0    0    0    0    0    0    0    0
                         0    0    0    0    0    0    0    0    0    0
                         0    0    1    0    1    0    0    0    0    0
                         1    0    1    0    0    0    0    0    0    0
           istwfk5       1    0    1    0    0    0    0    0    1    0
                         1    0    0    0    0    0    0    0    0    0
                         0    0    0    0    0    0    0    0    0    0
                         0    0    1    0    1    0    0    0    0    0
                         1    0    1    0    0    0    0    0    0    0
           istwfk6       1    0    1    0    0    0    0    0    1    0
                         1    0    0    0    0    0    0    0    0    0
                         0    0    0    0    0    0    0    0    0    0
                         0    0    1    0    1    0    0    0    0    0
                         1    0    1    0    0    0    0    0    0    0
           istwfk7       1    0    1    0    0    0    0    0    1    0
                         1    0    0    0    0    0    0    0    0    0
                         0    0    0    0    0    0    0    0    0    0
                         0    0    1    0    1    0    0    0    0    0
                         1    0    1    0    0    0    0    0    0    0
           istwfk8       1    0    1    0    0    0    0    0    1    0
                         1    0    0    0    0    0    0    0    0    0
                         0    0    0    0    0    0    0    0    0    0
                         0    0    1    0    1    0    0    0    0    0
                         1    0    1    0    0    0    0    0    0    0
           istwfk9       1    0    1    0    0    0    0    0    1    0
                         1    0    0    0    0    0    0    0    0    0
                         0    0    0    0    0    0    0    0    0    0
                         0    0    1    0    1    0    0    0    0    0
                         1    0    1    0    0    0    0    0    0    0
                       outvar_i_n : Printing only first  50 k-points.
              ixc          11
           jdtset        1    2    3    4    5    6    7    8    9
              kpt1     0.00000000E+00  0.00000000E+00  0.00000000E+00
                       2.50000000E-01  0.00000000E+00  0.00000000E+00
                       5.00000000E-01  0.00000000E+00  0.00000000E+00
                       2.50000000E-01  2.50000000E-01  0.00000000E+00
                       5.00000000E-01  2.50000000E-01  0.00000000E+00
                      -2.50000000E-01  2.50000000E-01  0.00000000E+00
                       5.00000000E-01  5.00000000E-01  0.00000000E+00
                      -2.50000000E-01  5.00000000E-01  2.50000000E-01
              kpt2     0.00000000E+00  0.00000000E+00  0.00000000E+00
                       2.50000000E-01  0.00000000E+00  0.00000000E+00
                       5.00000000E-01  0.00000000E+00  0.00000000E+00
                      -2.50000000E-01  0.00000000E+00  0.00000000E+00
                       0.00000000E+00  2.50000000E-01  0.00000000E+00
                       2.50000000E-01  2.50000000E-01  0.00000000E+00
                       5.00000000E-01  2.50000000E-01  0.00000000E+00
                      -2.50000000E-01  2.50000000E-01  0.00000000E+00
                       0.00000000E+00  5.00000000E-01  0.00000000E+00
                       2.50000000E-01  5.00000000E-01  0.00000000E+00
                       5.00000000E-01  5.00000000E-01  0.00000000E+00
                      -2.50000000E-01  5.00000000E-01  0.00000000E+00
                       0.00000000E+00 -2.50000000E-01  0.00000000E+00
                       2.50000000E-01 -2.50000000E-01  0.00000000E+00
                       5.00000000E-01 -2.50000000E-01  0.00000000E+00
                      -2.50000000E-01 -2.50000000E-01  0.00000000E+00
                       0.00000000E+00  0.00000000E+00  2.50000000E-01
                       2.50000000E-01  0.00000000E+00  2.50000000E-01
                       5.00000000E-01  0.00000000E+00  2.50000000E-01
                      -2.50000000E-01  0.00000000E+00  2.50000000E-01
                       0.00000000E+00  2.50000000E-01  2.50000000E-01
                       2.50000000E-01  2.50000000E-01  2.50000000E-01
                       5.00000000E-01  2.50000000E-01  2.50000000E-01
                      -2.50000000E-01  2.50000000E-01  2.50000000E-01
                       0.00000000E+00  5.00000000E-01  2.50000000E-01
                       2.50000000E-01  5.00000000E-01  2.50000000E-01
                       5.00000000E-01  5.00000000E-01  2.50000000E-01
                      -2.50000000E-01  5.00000000E-01  2.50000000E-01
                       0.00000000E+00 -2.50000000E-01  2.50000000E-01
                       2.50000000E-01 -2.50000000E-01  2.50000000E-01
                       5.00000000E-01 -2.50000000E-01  2.50000000E-01
                      -2.50000000E-01 -2.50000000E-01  2.50000000E-01
                       0.00000000E+00  0.00000000E+00  5.00000000E-01
                       2.50000000E-01  0.00000000E+00  5.00000000E-01
                       5.00000000E-01  0.00000000E+00  5.00000000E-01
                      -2.50000000E-01  0.00000000E+00  5.00000000E-01
                       0.00000000E+00  2.50000000E-01  5.00000000E-01
                       2.50000000E-01  2.50000000E-01  5.00000000E-01
                       5.00000000E-01  2.50000000E-01  5.00000000E-01
                      -2.50000000E-01  2.50000000E-01  5.00000000E-01
                       0.00000000E+00  5.00000000E-01  5.00000000E-01
                       2.50000000E-01  5.00000000E-01  5.00000000E-01
                       5.00000000E-01  5.00000000E-01  5.00000000E-01
                      -2.50000000E-01  5.00000000E-01  5.00000000E-01
                       0.00000000E+00 -2.50000000E-01  5.00000000E-01
                       2.50000000E-01 -2.50000000E-01  5.00000000E-01
                       5.00000000E-01 -2.50000000E-01  5.00000000E-01
                      -2.50000000E-01 -2.50000000E-01  5.00000000E-01
                       0.00000000E+00  0.00000000E+00 -2.50000000E-01
                       2.50000000E-01  0.00000000E+00 -2.50000000E-01
              kpt3     0.00000000E+00  0.00000000E+00  0.00000000E+00
                       2.50000000E-01  0.00000000E+00  0.00000000E+00
                       5.00000000E-01  0.00000000E+00  0.00000000E+00
                      -2.50000000E-01  0.00000000E+00  0.00000000E+00
                       0.00000000E+00  2.50000000E-01  0.00000000E+00
                       2.50000000E-01  2.50000000E-01  0.00000000E+00
                       5.00000000E-01  2.50000000E-01  0.00000000E+00
                      -2.50000000E-01  2.50000000E-01  0.00000000E+00
                       0.00000000E+00  5.00000000E-01  0.00000000E+00
                       2.50000000E-01  5.00000000E-01  0.00000000E+00
                       5.00000000E-01  5.00000000E-01  0.00000000E+00
                      -2.50000000E-01  5.00000000E-01  0.00000000E+00
                       0.00000000E+00 -2.50000000E-01  0.00000000E+00
                       2.50000000E-01 -2.50000000E-01  0.00000000E+00
                       5.00000000E-01 -2.50000000E-01  0.00000000E+00
                      -2.50000000E-01 -2.50000000E-01  0.00000000E+00
                       0.00000000E+00  0.00000000E+00  2.50000000E-01
                       2.50000000E-01  0.00000000E+00  2.50000000E-01
                       5.00000000E-01  0.00000000E+00  2.50000000E-01
                      -2.50000000E-01  0.00000000E+00  2.50000000E-01
                       0.00000000E+00  2.50000000E-01  2.50000000E-01
                       2.50000000E-01  2.50000000E-01  2.50000000E-01
                       5.00000000E-01  2.50000000E-01  2.50000000E-01
                      -2.50000000E-01  2.50000000E-01  2.50000000E-01
                       0.00000000E+00  5.00000000E-01  2.50000000E-01
                       2.50000000E-01  5.00000000E-01  2.50000000E-01
                       5.00000000E-01  5.00000000E-01  2.50000000E-01
                      -2.50000000E-01  5.00000000E-01  2.50000000E-01
                       0.00000000E+00 -2.50000000E-01  2.50000000E-01
                       2.50000000E-01 -2.50000000E-01  2.50000000E-01
                       5.00000000E-01 -2.50000000E-01  2.50000000E-01
                      -2.50000000E-01 -2.50000000E-01  2.50000000E-01
                       0.00000000E+00  0.00000000E+00  5.00000000E-01
                       2.50000000E-01  0.00000000E+00  5.00000000E-01
                       5.00000000E-01  0.00000000E+00  5.00000000E-01
                      -2.50000000E-01  0.00000000E+00  5.00000000E-01
                       0.00000000E+00  2.50000000E-01  5.00000000E-01
                       2.50000000E-01  2.50000000E-01  5.00000000E-01
                       5.00000000E-01  2.50000000E-01  5.00000000E-01
                      -2.50000000E-01  2.50000000E-01  5.00000000E-01
                       0.00000000E+00  5.00000000E-01  5.00000000E-01
                       2.50000000E-01  5.00000000E-01  5.00000000E-01
                       5.00000000E-01  5.00000000E-01  5.00000000E-01
                      -2.50000000E-01  5.00000000E-01  5.00000000E-01
                       0.00000000E+00 -2.50000000E-01  5.00000000E-01
                       2.50000000E-01 -2.50000000E-01  5.00000000E-01
                       5.00000000E-01 -2.50000000E-01  5.00000000E-01
                      -2.50000000E-01 -2.50000000E-01  5.00000000E-01
                       0.00000000E+00  0.00000000E+00 -2.50000000E-01
                       2.50000000E-01  0.00000000E+00 -2.50000000E-01
              kpt4     0.00000000E+00  0.00000000E+00  0.00000000E+00
                       2.50000000E-01  0.00000000E+00  0.00000000E+00
                       5.00000000E-01  0.00000000E+00  0.00000000E+00
                      -2.50000000E-01  0.00000000E+00  0.00000000E+00
                       0.00000000E+00  2.50000000E-01  0.00000000E+00
                       2.50000000E-01  2.50000000E-01  0.00000000E+00
                       5.00000000E-01  2.50000000E-01  0.00000000E+00
                      -2.50000000E-01  2.50000000E-01  0.00000000E+00
                       0.00000000E+00  5.00000000E-01  0.00000000E+00
                       2.50000000E-01  5.00000000E-01  0.00000000E+00
                       5.00000000E-01  5.00000000E-01  0.00000000E+00
                      -2.50000000E-01  5.00000000E-01  0.00000000E+00
                       0.00000000E+00 -2.50000000E-01  0.00000000E+00
                       2.50000000E-01 -2.50000000E-01  0.00000000E+00
                       5.00000000E-01 -2.50000000E-01  0.00000000E+00
                      -2.50000000E-01 -2.50000000E-01  0.00000000E+00
                       0.00000000E+00  0.00000000E+00  2.50000000E-01
                       2.50000000E-01  0.00000000E+00  2.50000000E-01
                       5.00000000E-01  0.00000000E+00  2.50000000E-01
                      -2.50000000E-01  0.00000000E+00  2.50000000E-01
                       0.00000000E+00  2.50000000E-01  2.50000000E-01
                       2.50000000E-01  2.50000000E-01  2.50000000E-01
                       5.00000000E-01  2.50000000E-01  2.50000000E-01
                      -2.50000000E-01  2.50000000E-01  2.50000000E-01
                       0.00000000E+00  5.00000000E-01  2.50000000E-01
                       2.50000000E-01  5.00000000E-01  2.50000000E-01
                       5.00000000E-01  5.00000000E-01  2.50000000E-01
                      -2.50000000E-01  5.00000000E-01  2.50000000E-01
                       0.00000000E+00 -2.50000000E-01  2.50000000E-01
                       2.50000000E-01 -2.50000000E-01  2.50000000E-01
                       5.00000000E-01 -2.50000000E-01  2.50000000E-01
                      -2.50000000E-01 -2.50000000E-01  2.50000000E-01
                       0.00000000E+00  0.00000000E+00  5.00000000E-01
                       2.50000000E-01  0.00000000E+00  5.00000000E-01
                       5.00000000E-01  0.00000000E+00  5.00000000E-01
                      -2.50000000E-01  0.00000000E+00  5.00000000E-01
                       0.00000000E+00  2.50000000E-01  5.00000000E-01
                       2.50000000E-01  2.50000000E-01  5.00000000E-01
                       5.00000000E-01  2.50000000E-01  5.00000000E-01
                      -2.50000000E-01  2.50000000E-01  5.00000000E-01
                       0.00000000E+00  5.00000000E-01  5.00000000E-01
                       2.50000000E-01  5.00000000E-01  5.00000000E-01
                       5.00000000E-01  5.00000000E-01  5.00000000E-01
                      -2.50000000E-01  5.00000000E-01  5.00000000E-01
                       0.00000000E+00 -2.50000000E-01  5.00000000E-01
                       2.50000000E-01 -2.50000000E-01  5.00000000E-01
                       5.00000000E-01 -2.50000000E-01  5.00000000E-01
                      -2.50000000E-01 -2.50000000E-01  5.00000000E-01
                       0.00000000E+00  0.00000000E+00 -2.50000000E-01
                       2.50000000E-01  0.00000000E+00 -2.50000000E-01
              kpt5     0.00000000E+00  0.00000000E+00  0.00000000E+00
                       2.50000000E-01  0.00000000E+00  0.00000000E+00
                       5.00000000E-01  0.00000000E+00  0.00000000E+00
                      -2.50000000E-01  0.00000000E+00  0.00000000E+00
                       0.00000000E+00  2.50000000E-01  0.00000000E+00
                       2.50000000E-01  2.50000000E-01  0.00000000E+00
                       5.00000000E-01  2.50000000E-01  0.00000000E+00
                      -2.50000000E-01  2.50000000E-01  0.00000000E+00
                       0.00000000E+00  5.00000000E-01  0.00000000E+00
                       2.50000000E-01  5.00000000E-01  0.00000000E+00
                       5.00000000E-01  5.00000000E-01  0.00000000E+00
                      -2.50000000E-01  5.00000000E-01  0.00000000E+00
                       0.00000000E+00 -2.50000000E-01  0.00000000E+00
                       2.50000000E-01 -2.50000000E-01  0.00000000E+00
                       5.00000000E-01 -2.50000000E-01  0.00000000E+00
                      -2.50000000E-01 -2.50000000E-01  0.00000000E+00
                       0.00000000E+00  0.00000000E+00  2.50000000E-01
                       2.50000000E-01  0.00000000E+00  2.50000000E-01
                       5.00000000E-01  0.00000000E+00  2.50000000E-01
                      -2.50000000E-01  0.00000000E+00  2.50000000E-01
                       0.00000000E+00  2.50000000E-01  2.50000000E-01
                       2.50000000E-01  2.50000000E-01  2.50000000E-01
                       5.00000000E-01  2.50000000E-01  2.50000000E-01
                      -2.50000000E-01  2.50000000E-01  2.50000000E-01
                       0.00000000E+00  5.00000000E-01  2.50000000E-01
                       2.50000000E-01  5.00000000E-01  2.50000000E-01
                       5.00000000E-01  5.00000000E-01  2.50000000E-01
                      -2.50000000E-01  5.00000000E-01  2.50000000E-01
                       0.00000000E+00 -2.50000000E-01  2.50000000E-01
                       2.50000000E-01 -2.50000000E-01  2.50000000E-01
                       5.00000000E-01 -2.50000000E-01  2.50000000E-01
                      -2.50000000E-01 -2.50000000E-01  2.50000000E-01
                       0.00000000E+00  0.00000000E+00  5.00000000E-01
                       2.50000000E-01  0.00000000E+00  5.00000000E-01
                       5.00000000E-01  0.00000000E+00  5.00000000E-01
                      -2.50000000E-01  0.00000000E+00  5.00000000E-01
                       0.00000000E+00  2.50000000E-01  5.00000000E-01
                       2.50000000E-01  2.50000000E-01  5.00000000E-01
                       5.00000000E-01  2.50000000E-01  5.00000000E-01
                      -2.50000000E-01  2.50000000E-01  5.00000000E-01
                       0.00000000E+00  5.00000000E-01  5.00000000E-01
                       2.50000000E-01  5.00000000E-01  5.00000000E-01
                       5.00000000E-01  5.00000000E-01  5.00000000E-01
                      -2.50000000E-01  5.00000000E-01  5.00000000E-01
                       0.00000000E+00 -2.50000000E-01  5.00000000E-01
                       2.50000000E-01 -2.50000000E-01  5.00000000E-01
                       5.00000000E-01 -2.50000000E-01  5.00000000E-01
                      -2.50000000E-01 -2.50000000E-01  5.00000000E-01
                       0.00000000E+00  0.00000000E+00 -2.50000000E-01
                       2.50000000E-01  0.00000000E+00 -2.50000000E-01
              kpt6     0.00000000E+00  0.00000000E+00  0.00000000E+00
                       2.50000000E-01  0.00000000E+00  0.00000000E+00
                       5.00000000E-01  0.00000000E+00  0.00000000E+00
                      -2.50000000E-01  0.00000000E+00  0.00000000E+00
                       0.00000000E+00  2.50000000E-01  0.00000000E+00
                       2.50000000E-01  2.50000000E-01  0.00000000E+00
                       5.00000000E-01  2.50000000E-01  0.00000000E+00
                      -2.50000000E-01  2.50000000E-01  0.00000000E+00
                       0.00000000E+00  5.00000000E-01  0.00000000E+00
                       2.50000000E-01  5.00000000E-01  0.00000000E+00
                       5.00000000E-01  5.00000000E-01  0.00000000E+00
                      -2.50000000E-01  5.00000000E-01  0.00000000E+00
                       0.00000000E+00 -2.50000000E-01  0.00000000E+00
                       2.50000000E-01 -2.50000000E-01  0.00000000E+00
                       5.00000000E-01 -2.50000000E-01  0.00000000E+00
                      -2.50000000E-01 -2.50000000E-01  0.00000000E+00
                       0.00000000E+00  0.00000000E+00  2.50000000E-01
                       2.50000000E-01  0.00000000E+00  2.50000000E-01
                       5.00000000E-01  0.00000000E+00  2.50000000E-01
                      -2.50000000E-01  0.00000000E+00  2.50000000E-01
                       0.00000000E+00  2.50000000E-01  2.50000000E-01
                       2.50000000E-01  2.50000000E-01  2.50000000E-01
                       5.00000000E-01  2.50000000E-01  2.50000000E-01
                      -2.50000000E-01  2.50000000E-01  2.50000000E-01
                       0.00000000E+00  5.00000000E-01  2.50000000E-01
                       2.50000000E-01  5.00000000E-01  2.50000000E-01
                       5.00000000E-01  5.00000000E-01  2.50000000E-01
                      -2.50000000E-01  5.00000000E-01  2.50000000E-01
                       0.00000000E+00 -2.50000000E-01  2.50000000E-01
                       2.50000000E-01 -2.50000000E-01  2.50000000E-01
                       5.00000000E-01 -2.50000000E-01  2.50000000E-01
                      -2.50000000E-01 -2.50000000E-01  2.50000000E-01
                       0.00000000E+00  0.00000000E+00  5.00000000E-01
                       2.50000000E-01  0.00000000E+00  5.00000000E-01
                       5.00000000E-01  0.00000000E+00  5.00000000E-01
                      -2.50000000E-01  0.00000000E+00  5.00000000E-01
                       0.00000000E+00  2.50000000E-01  5.00000000E-01
                       2.50000000E-01  2.50000000E-01  5.00000000E-01
                       5.00000000E-01  2.50000000E-01  5.00000000E-01
                      -2.50000000E-01  2.50000000E-01  5.00000000E-01
                       0.00000000E+00  5.00000000E-01  5.00000000E-01
                       2.50000000E-01  5.00000000E-01  5.00000000E-01
                       5.00000000E-01  5.00000000E-01  5.00000000E-01
                      -2.50000000E-01  5.00000000E-01  5.00000000E-01
                       0.00000000E+00 -2.50000000E-01  5.00000000E-01
                       2.50000000E-01 -2.50000000E-01  5.00000000E-01
                       5.00000000E-01 -2.50000000E-01  5.00000000E-01
                      -2.50000000E-01 -2.50000000E-01  5.00000000E-01
                       0.00000000E+00  0.00000000E+00 -2.50000000E-01
                       2.50000000E-01  0.00000000E+00 -2.50000000E-01
              kpt7     0.00000000E+00  0.00000000E+00  0.00000000E+00
                       2.50000000E-01  0.00000000E+00  0.00000000E+00
                       5.00000000E-01  0.00000000E+00  0.00000000E+00
                      -2.50000000E-01  0.00000000E+00  0.00000000E+00
                       0.00000000E+00  2.50000000E-01  0.00000000E+00
                       2.50000000E-01  2.50000000E-01  0.00000000E+00
                       5.00000000E-01  2.50000000E-01  0.00000000E+00
                      -2.50000000E-01  2.50000000E-01  0.00000000E+00
                       0.00000000E+00  5.00000000E-01  0.00000000E+00
                       2.50000000E-01  5.00000000E-01  0.00000000E+00
                       5.00000000E-01  5.00000000E-01  0.00000000E+00
                      -2.50000000E-01  5.00000000E-01  0.00000000E+00
                       0.00000000E+00 -2.50000000E-01  0.00000000E+00
                       2.50000000E-01 -2.50000000E-01  0.00000000E+00
                       5.00000000E-01 -2.50000000E-01  0.00000000E+00
                      -2.50000000E-01 -2.50000000E-01  0.00000000E+00
                       0.00000000E+00  0.00000000E+00  2.50000000E-01
                       2.50000000E-01  0.00000000E+00  2.50000000E-01
                       5.00000000E-01  0.00000000E+00  2.50000000E-01
                      -2.50000000E-01  0.00000000E+00  2.50000000E-01
                       0.00000000E+00  2.50000000E-01  2.50000000E-01
                       2.50000000E-01  2.50000000E-01  2.50000000E-01
                       5.00000000E-01  2.50000000E-01  2.50000000E-01
                      -2.50000000E-01  2.50000000E-01  2.50000000E-01
                       0.00000000E+00  5.00000000E-01  2.50000000E-01
                       2.50000000E-01  5.00000000E-01  2.50000000E-01
                       5.00000000E-01  5.00000000E-01  2.50000000E-01
                      -2.50000000E-01  5.00000000E-01  2.50000000E-01
                       0.00000000E+00 -2.50000000E-01  2.50000000E-01
                       2.50000000E-01 -2.50000000E-01  2.50000000E-01
                       5.00000000E-01 -2.50000000E-01  2.50000000E-01
                      -2.50000000E-01 -2.50000000E-01  2.50000000E-01
                       0.00000000E+00  0.00000000E+00  5.00000000E-01
                       2.50000000E-01  0.00000000E+00  5.00000000E-01
                       5.00000000E-01  0.00000000E+00  5.00000000E-01
                      -2.50000000E-01  0.00000000E+00  5.00000000E-01
                       0.00000000E+00  2.50000000E-01  5.00000000E-01
                       2.50000000E-01  2.50000000E-01  5.00000000E-01
                       5.00000000E-01  2.50000000E-01  5.00000000E-01
                      -2.50000000E-01  2.50000000E-01  5.00000000E-01
                       0.00000000E+00  5.00000000E-01  5.00000000E-01
                       2.50000000E-01  5.00000000E-01  5.00000000E-01
                       5.00000000E-01  5.00000000E-01  5.00000000E-01
                      -2.50000000E-01  5.00000000E-01  5.00000000E-01
                       0.00000000E+00 -2.50000000E-01  5.00000000E-01
                       2.50000000E-01 -2.50000000E-01  5.00000000E-01
                       5.00000000E-01 -2.50000000E-01  5.00000000E-01
                      -2.50000000E-01 -2.50000000E-01  5.00000000E-01
                       0.00000000E+00  0.00000000E+00 -2.50000000E-01
                       2.50000000E-01  0.00000000E+00 -2.50000000E-01
              kpt8     0.00000000E+00  0.00000000E+00  0.00000000E+00
                       2.50000000E-01  0.00000000E+00  0.00000000E+00
                       5.00000000E-01  0.00000000E+00  0.00000000E+00
                      -2.50000000E-01  0.00000000E+00  0.00000000E+00
                       0.00000000E+00  2.50000000E-01  0.00000000E+00
                       2.50000000E-01  2.50000000E-01  0.00000000E+00
                       5.00000000E-01  2.50000000E-01  0.00000000E+00
                      -2.50000000E-01  2.50000000E-01  0.00000000E+00
                       0.00000000E+00  5.00000000E-01  0.00000000E+00
                       2.50000000E-01  5.00000000E-01  0.00000000E+00
                       5.00000000E-01  5.00000000E-01  0.00000000E+00
                      -2.50000000E-01  5.00000000E-01  0.00000000E+00
                       0.00000000E+00 -2.50000000E-01  0.00000000E+00
                       2.50000000E-01 -2.50000000E-01  0.00000000E+00
                       5.00000000E-01 -2.50000000E-01  0.00000000E+00
                      -2.50000000E-01 -2.50000000E-01  0.00000000E+00
                       0.00000000E+00  0.00000000E+00  2.50000000E-01
                       2.50000000E-01  0.00000000E+00  2.50000000E-01
                       5.00000000E-01  0.00000000E+00  2.50000000E-01
                      -2.50000000E-01  0.00000000E+00  2.50000000E-01
                       0.00000000E+00  2.50000000E-01  2.50000000E-01
                       2.50000000E-01  2.50000000E-01  2.50000000E-01
                       5.00000000E-01  2.50000000E-01  2.50000000E-01
                      -2.50000000E-01  2.50000000E-01  2.50000000E-01
                       0.00000000E+00  5.00000000E-01  2.50000000E-01
                       2.50000000E-01  5.00000000E-01  2.50000000E-01
                       5.00000000E-01  5.00000000E-01  2.50000000E-01
                      -2.50000000E-01  5.00000000E-01  2.50000000E-01
                       0.00000000E+00 -2.50000000E-01  2.50000000E-01
                       2.50000000E-01 -2.50000000E-01  2.50000000E-01
                       5.00000000E-01 -2.50000000E-01  2.50000000E-01
                      -2.50000000E-01 -2.50000000E-01  2.50000000E-01
                       0.00000000E+00  0.00000000E+00  5.00000000E-01
                       2.50000000E-01  0.00000000E+00  5.00000000E-01
                       5.00000000E-01  0.00000000E+00  5.00000000E-01
                      -2.50000000E-01  0.00000000E+00  5.00000000E-01
                       0.00000000E+00  2.50000000E-01  5.00000000E-01
                       2.50000000E-01  2.50000000E-01  5.00000000E-01
                       5.00000000E-01  2.50000000E-01  5.00000000E-01
                      -2.50000000E-01  2.50000000E-01  5.00000000E-01
                       0.00000000E+00  5.00000000E-01  5.00000000E-01
                       2.50000000E-01  5.00000000E-01  5.00000000E-01
                       5.00000000E-01  5.00000000E-01  5.00000000E-01
                      -2.50000000E-01  5.00000000E-01  5.00000000E-01
                       0.00000000E+00 -2.50000000E-01  5.00000000E-01
                       2.50000000E-01 -2.50000000E-01  5.00000000E-01
                       5.00000000E-01 -2.50000000E-01  5.00000000E-01
                      -2.50000000E-01 -2.50000000E-01  5.00000000E-01
                       0.00000000E+00  0.00000000E+00 -2.50000000E-01
                       2.50000000E-01  0.00000000E+00 -2.50000000E-01
              kpt9     0.00000000E+00  0.00000000E+00  0.00000000E+00
                       2.50000000E-01  0.00000000E+00  0.00000000E+00
                       5.00000000E-01  0.00000000E+00  0.00000000E+00
                      -2.50000000E-01  0.00000000E+00  0.00000000E+00
                       0.00000000E+00  2.50000000E-01  0.00000000E+00
                       2.50000000E-01  2.50000000E-01  0.00000000E+00
                       5.00000000E-01  2.50000000E-01  0.00000000E+00
                      -2.50000000E-01  2.50000000E-01  0.00000000E+00
                       0.00000000E+00  5.00000000E-01  0.00000000E+00
                       2.50000000E-01  5.00000000E-01  0.00000000E+00
                       5.00000000E-01  5.00000000E-01  0.00000000E+00
                      -2.50000000E-01  5.00000000E-01  0.00000000E+00
                       0.00000000E+00 -2.50000000E-01  0.00000000E+00
                       2.50000000E-01 -2.50000000E-01  0.00000000E+00
                       5.00000000E-01 -2.50000000E-01  0.00000000E+00
                      -2.50000000E-01 -2.50000000E-01  0.00000000E+00
                       0.00000000E+00  0.00000000E+00  2.50000000E-01
                       2.50000000E-01  0.00000000E+00  2.50000000E-01
                       5.00000000E-01  0.00000000E+00  2.50000000E-01
                      -2.50000000E-01  0.00000000E+00  2.50000000E-01
                       0.00000000E+00  2.50000000E-01  2.50000000E-01
                       2.50000000E-01  2.50000000E-01  2.50000000E-01
                       5.00000000E-01  2.50000000E-01  2.50000000E-01
                      -2.50000000E-01  2.50000000E-01  2.50000000E-01
                       0.00000000E+00  5.00000000E-01  2.50000000E-01
                       2.50000000E-01  5.00000000E-01  2.50000000E-01
                       5.00000000E-01  5.00000000E-01  2.50000000E-01
                      -2.50000000E-01  5.00000000E-01  2.50000000E-01
                       0.00000000E+00 -2.50000000E-01  2.50000000E-01
                       2.50000000E-01 -2.50000000E-01  2.50000000E-01
                       5.00000000E-01 -2.50000000E-01  2.50000000E-01
                      -2.50000000E-01 -2.50000000E-01  2.50000000E-01
                       0.00000000E+00  0.00000000E+00  5.00000000E-01
                       2.50000000E-01  0.00000000E+00  5.00000000E-01
                       5.00000000E-01  0.00000000E+00  5.00000000E-01
                      -2.50000000E-01  0.00000000E+00  5.00000000E-01
                       0.00000000E+00  2.50000000E-01  5.00000000E-01
                       2.50000000E-01  2.50000000E-01  5.00000000E-01
                       5.00000000E-01  2.50000000E-01  5.00000000E-01
                      -2.50000000E-01  2.50000000E-01  5.00000000E-01
                       0.00000000E+00  5.00000000E-01  5.00000000E-01
                       2.50000000E-01  5.00000000E-01  5.00000000E-01
                       5.00000000E-01  5.00000000E-01  5.00000000E-01
                      -2.50000000E-01  5.00000000E-01  5.00000000E-01
                       0.00000000E+00 -2.50000000E-01  5.00000000E-01
                       2.50000000E-01 -2.50000000E-01  5.00000000E-01
                       5.00000000E-01 -2.50000000E-01  5.00000000E-01
                      -2.50000000E-01 -2.50000000E-01  5.00000000E-01
                       0.00000000E+00  0.00000000E+00 -2.50000000E-01
                       2.50000000E-01  0.00000000E+00 -2.50000000E-01
                       outvar_i_n : Printing only first  50 k-points.
           kptopt1          1
           kptopt2          3
           kptopt3          3
           kptopt4          3
           kptopt5          3
           kptopt6          3
           kptopt7          3
           kptopt8          3
           kptopt9          3
         kptrlatt        4    0    0      0    4    0      0    0    4
          kptrlen      2.92346228E+01
P           mkmem1          1
P           mkmem2          6
P           mkmem3          6
P           mkmem4          6
P           mkmem5          6
P           mkmem6          6
P           mkmem7          6
P           mkmem8          6
P           mkmem9          6
P          mkqmem1          1
P          mkqmem2          6
P          mkqmem3          6
P          mkqmem4          6
P          mkqmem5          6
P          mkqmem6          6
P          mkqmem7          6
P          mkqmem8          6
P          mkqmem9          6
P          mk1mem1          1
P          mk1mem2          6
P          mk1mem3          6
P          mk1mem4          6
P          mk1mem5          6
P          mk1mem6          6
P          mk1mem7          6
P          mk1mem8          6
P          mk1mem9          6
            natom           2
            nband1          5
            nband2          5
            nband3          5
            nband4          5
            nband5          5
            nband6          5
            nband7          5
            nband8          5
            nband9          5
           ndtset           9
            ngfft          24      24      24
             nkpt1          8
             nkpt2         64
             nkpt3         64
             nkpt4         64
             nkpt5         64
             nkpt6         64
             nkpt7         64
             nkpt8         64
             nkpt9         64
             nqpt1          0
             nqpt2          1
             nqpt3          1
             nqpt4          1
             nqpt5          1
             nqpt6          1
             nqpt7          1
             nqpt8          1
             nqpt9          1
            nstep          50
             nsym          48
           ntypat           1
              occ1     2.000000  2.000000  2.000000  2.000000  0.000000
              occ2     2.000000  2.000000  2.000000  2.000000  0.000000
              occ3     2.000000  2.000000  2.000000  2.000000  0.000000
              occ4     2.000000  2.000000  2.000000  2.000000  0.000000
              occ5     2.000000  2.000000  2.000000  2.000000  0.000000
              occ6     2.000000  2.000000  2.000000  2.000000  0.000000
              occ7     2.000000  2.000000  2.000000  2.000000  0.000000
              occ8     2.000000  2.000000  2.000000  2.000000  0.000000
              occ9     2.000000  2.000000  2.000000  2.000000  0.000000
        optdriver1          0
        optdriver2          1
        optdriver3          1
        optdriver4          1
        optdriver5          1
        optdriver6          1
        optdriver7          1
        optdriver8          1
        optdriver9          1
           prtpot1          0
           prtpot2          1
           prtpot3          1
           prtpot4          1
           prtpot5          1
           prtpot6          1
           prtpot7          1
           prtpot8          1
           prtpot9          1
              qpt1     0.00000000E+00  0.00000000E+00  0.00000000E+00
              qpt2     0.00000000E+00  0.00000000E+00  0.00000000E+00
              qpt3     2.50000000E-01  0.00000000E+00  0.00000000E+00
              qpt4     5.00000000E-01  0.00000000E+00  0.00000000E+00
              qpt5     2.50000000E-01  2.50000000E-01  0.00000000E+00
              qpt6     5.00000000E-01  2.50000000E-01  0.00000000E+00
              qpt7    -2.50000000E-01  2.50000000E-01  0.00000000E+00
              qpt8     5.00000000E-01  5.00000000E-01  0.00000000E+00
              qpt9    -2.50000000E-01  5.00000000E-01  2.50000000E-01
           rfphon1          0
           rfphon2          1
           rfphon3          1
           rfphon4          1
           rfphon5          1
           rfphon6          1
           rfphon7          1
           rfphon8          1
           rfphon9          1
            rprim      0.0000000000E+00  5.0000000000E-01  5.0000000000E-01
                       5.0000000000E-01  0.0000000000E+00  5.0000000000E-01
                       5.0000000000E-01  5.0000000000E-01  0.0000000000E+00
          spgroup         227
           symrel      1  0  0   0  1  0   0  0  1      -1  0  0   0 -1  0   0  0 -1
                       0 -1  1   0 -1  0   1 -1  0       0  1 -1   0  1  0  -1  1  0
                      -1  0  0  -1  0  1  -1  1  0       1  0  0   1  0 -1   1 -1  0
                       0  1 -1   1  0 -1   0  0 -1       0 -1  1  -1  0  1   0  0  1
                      -1  0  0  -1  1  0  -1  0  1       1  0  0   1 -1  0   1  0 -1
                       0 -1  1   1 -1  0   0 -1  0       0  1 -1  -1  1  0   0  1  0
                       1  0  0   0  0  1   0  1  0      -1  0  0   0  0 -1   0 -1  0
                       0  1 -1   0  0 -1   1  0 -1       0 -1  1   0  0  1  -1  0  1
                      -1  0  1  -1  1  0  -1  0  0       1  0 -1   1 -1  0   1  0  0
                       0 -1  0   1 -1  0   0 -1  1       0  1  0  -1  1  0   0  1 -1
                       1  0 -1   0  0 -1   0  1 -1      -1  0  1   0  0  1   0 -1  1
                       0  1  0   0  0  1   1  0  0       0 -1  0   0  0 -1  -1  0  0
                       1  0 -1   0  1 -1   0  0 -1      -1  0  1   0 -1  1   0  0  1
                       0 -1  0   0 -1  1   1 -1  0       0  1  0   0  1 -1  -1  1  0
                      -1  0  1  -1  0  0  -1  1  0       1  0 -1   1  0  0   1 -1  0
                       0  1  0   1  0  0   0  0  1       0 -1  0  -1  0  0   0  0 -1
                       0  0 -1   0  1 -1   1  0 -1       0  0  1   0 -1  1  -1  0  1
                       1 -1  0   0 -1  1   0 -1  0      -1  1  0   0  1 -1   0  1  0
                       0  0  1   1  0  0   0  1  0       0  0 -1  -1  0  0   0 -1  0
                      -1  1  0  -1  0  0  -1  0  1       1 -1  0   1  0  0   1  0 -1
                       0  0  1   0  1  0   1  0  0       0  0 -1   0 -1  0  -1  0  0
                       1 -1  0   0 -1  0   0 -1  1      -1  1  0   0  1  0   0  1 -1
                       0  0 -1   1  0 -1   0  1 -1       0  0  1  -1  0  1   0 -1  1
                      -1  1  0  -1  0  1  -1  0  0       1 -1  0   1  0 -1   1  0  0
            tnons      0.0000000  0.0000000  0.0000000     0.2500000  0.2500000  0.2500000
                       0.0000000  0.0000000  0.0000000     0.2500000  0.2500000  0.2500000
                       0.0000000  0.0000000  0.0000000     0.2500000  0.2500000  0.2500000
                       0.0000000  0.0000000  0.0000000     0.2500000  0.2500000  0.2500000
                       0.0000000  0.0000000  0.0000000     0.2500000  0.2500000  0.2500000
                       0.0000000  0.0000000  0.0000000     0.2500000  0.2500000  0.2500000
                       0.0000000  0.0000000  0.0000000     0.2500000  0.2500000  0.2500000
                       0.0000000  0.0000000  0.0000000     0.2500000  0.2500000  0.2500000
                       0.0000000  0.0000000  0.0000000     0.2500000  0.2500000  0.2500000
                       0.0000000  0.0000000  0.0000000     0.2500000  0.2500000  0.2500000
                       0.0000000  0.0000000  0.0000000     0.2500000  0.2500000  0.2500000
                       0.0000000  0.0000000  0.0000000     0.2500000  0.2500000  0.2500000
                       0.0000000  0.0000000  0.0000000     0.2500000  0.2500000  0.2500000
                       0.0000000  0.0000000  0.0000000     0.2500000  0.2500000  0.2500000
                       0.0000000  0.0000000  0.0000000     0.2500000  0.2500000  0.2500000
                       0.0000000  0.0000000  0.0000000     0.2500000  0.2500000  0.2500000
                       0.0000000  0.0000000  0.0000000     0.2500000  0.2500000  0.2500000
                       0.0000000  0.0000000  0.0000000     0.2500000  0.2500000  0.2500000
                       0.0000000  0.0000000  0.0000000     0.2500000  0.2500000  0.2500000
                       0.0000000  0.0000000  0.0000000     0.2500000  0.2500000  0.2500000
                       0.0000000  0.0000000  0.0000000     0.2500000  0.2500000  0.2500000
                       0.0000000  0.0000000  0.0000000     0.2500000  0.2500000  0.2500000
                       0.0000000  0.0000000  0.0000000     0.2500000  0.2500000  0.2500000
                       0.0000000  0.0000000  0.0000000     0.2500000  0.2500000  0.2500000
           tolvrs1     1.00000000E-18
           tolvrs2     1.00000000E-08
           tolvrs3     1.00000000E-08
           tolvrs4     1.00000000E-08
           tolvrs5     1.00000000E-08
           tolvrs6     1.00000000E-08
           tolvrs7     1.00000000E-08
           tolvrs8     1.00000000E-08
           tolvrs9     1.00000000E-08
            typat      1  1
              wtk1       0.01563    0.12500    0.06250    0.09375    0.37500    0.18750
                         0.04688    0.09375
              wtk2       0.01563    0.01563    0.01563    0.01563    0.01563    0.01563
                         0.01563    0.01563    0.01563    0.01563    0.01563    0.01563
                         0.01563    0.01563    0.01563    0.01563    0.01563    0.01563
                         0.01563    0.01563    0.01563    0.01563    0.01563    0.01563
                         0.01563    0.01563    0.01563    0.01563    0.01563    0.01563
                         0.01563    0.01563    0.01563    0.01563    0.01563    0.01563
                         0.01563    0.01563    0.01563    0.01563    0.01563    0.01563
                         0.01563    0.01563    0.01563    0.01563    0.01563    0.01563
                         0.01563    0.01563
              wtk3       0.01563    0.01563    0.01563    0.01563    0.01563    0.01563
                         0.01563    0.01563    0.01563    0.01563    0.01563    0.01563
                         0.01563    0.01563    0.01563    0.01563    0.01563    0.01563
                         0.01563    0.01563    0.01563    0.01563    0.01563    0.01563
                         0.01563    0.01563    0.01563    0.01563    0.01563    0.01563
                         0.01563    0.01563    0.01563    0.01563    0.01563    0.01563
                         0.01563    0.01563    0.01563    0.01563    0.01563    0.01563
                         0.01563    0.01563    0.01563    0.01563    0.01563    0.01563
                         0.01563    0.01563
              wtk4       0.01563    0.01563    0.01563    0.01563    0.01563    0.01563
                         0.01563    0.01563    0.01563    0.01563    0.01563    0.01563
                         0.01563    0.01563    0.01563    0.01563    0.01563    0.01563
                         0.01563    0.01563    0.01563    0.01563    0.01563    0.01563
                         0.01563    0.01563    0.01563    0.01563    0.01563    0.01563
                         0.01563    0.01563    0.01563    0.01563    0.01563    0.01563
                         0.01563    0.01563    0.01563    0.01563    0.01563    0.01563
                         0.01563    0.01563    0.01563    0.01563    0.01563    0.01563
                         0.01563    0.01563
              wtk5       0.01563    0.01563    0.01563    0.01563    0.01563    0.01563
                         0.01563    0.01563    0.01563    0.01563    0.01563    0.01563
                         0.01563    0.01563    0.01563    0.01563    0.01563    0.01563
                         0.01563    0.01563    0.01563    0.01563    0.01563    0.01563
                         0.01563    0.01563    0.01563    0.01563    0.01563    0.01563
                         0.01563    0.01563    0.01563    0.01563    0.01563    0.01563
                         0.01563    0.01563    0.01563    0.01563    0.01563    0.01563
                         0.01563    0.01563    0.01563    0.01563    0.01563    0.01563
                         0.01563    0.01563
              wtk6       0.01563    0.01563    0.01563    0.01563    0.01563    0.01563
                         0.01563    0.01563    0.01563    0.01563    0.01563    0.01563
                         0.01563    0.01563    0.01563    0.01563    0.01563    0.01563
                         0.01563    0.01563    0.01563    0.01563    0.01563    0.01563
                         0.01563    0.01563    0.01563    0.01563    0.01563    0.01563
                         0.01563    0.01563    0.01563    0.01563    0.01563    0.01563
                         0.01563    0.01563    0.01563    0.01563    0.01563    0.01563
                         0.01563    0.01563    0.01563    0.01563    0.01563    0.01563
                         0.01563    0.01563
              wtk7       0.01563    0.01563    0.01563    0.01563    0.01563    0.01563
                         0.01563    0.01563    0.01563    0.01563    0.01563    0.01563
                         0.01563    0.01563    0.01563    0.01563    0.01563    0.01563
                         0.01563    0.01563    0.01563    0.01563    0.01563    0.01563
                         0.01563    0.01563    0.01563    0.01563    0.01563    0.01563
                         0.01563    0.01563    0.01563    0.01563    0.01563    0.01563
                         0.01563    0.01563    0.01563    0.01563    0.01563    0.01563
                         0.01563    0.01563    0.01563    0.01563    0.01563    0.01563
                         0.01563    0.01563
              wtk8       0.01563    0.01563    0.01563    0.01563    0.01563    0.01563
                         0.01563    0.01563    0.01563    0.01563    0.01563    0.01563
                         0.01563    0.01563    0.01563    0.01563    0.01563    0.01563
                         0.01563    0.01563    0.01563    0.01563    0.01563    0.01563
                         0.01563    0.01563    0.01563    0.01563    0.01563    0.01563
                         0.01563    0.01563    0.01563    0.01563    0.01563    0.01563
                         0.01563    0.01563    0.01563    0.01563    0.01563    0.01563
                         0.01563    0.01563    0.01563    0.01563    0.01563    0.01563
                         0.01563    0.01563
              wtk9       0.01563    0.01563    0.01563    0.01563    0.01563    0.01563
                         0.01563    0.01563    0.01563    0.01563    0.01563    0.01563
                         0.01563    0.01563    0.01563    0.01563    0.01563    0.01563
                         0.01563    0.01563    0.01563    0.01563    0.01563    0.01563
                         0.01563    0.01563    0.01563    0.01563    0.01563    0.01563
                         0.01563    0.01563    0.01563    0.01563    0.01563    0.01563
                         0.01563    0.01563    0.01563    0.01563    0.01563    0.01563
                         0.01563    0.01563    0.01563    0.01563    0.01563    0.01563
                         0.01563    0.01563
                       outvars : Printing only first  50 k-points.
           xangst      0.0000000000E+00  0.0000000000E+00  0.0000000000E+00
                       1.3673939070E+00  1.3673939070E+00  1.3673939070E+00
            xcart      0.0000000000E+00  0.0000000000E+00  0.0000000000E+00
                       2.5840000000E+00  2.5840000000E+00  2.5840000000E+00
             xred      0.0000000000E+00  0.0000000000E+00  0.0000000000E+00
                       2.5000000000E-01  2.5000000000E-01  2.5000000000E-01
            znucl       14.00000

================================================================================

 chkinp: Checking input parameters for consistency, jdtset=   1.

 chkinp: Checking input parameters for consistency, jdtset=   2.

 chkinp: Checking input parameters for consistency, jdtset=   3.

 chkinp: Checking input parameters for consistency, jdtset=   4.

 chkinp: Checking input parameters for consistency, jdtset=   5.

 chkinp: Checking input parameters for consistency, jdtset=   6.

 chkinp: Checking input parameters for consistency, jdtset=   7.

 chkinp: Checking input parameters for consistency, jdtset=   8.

 chkinp: Checking input parameters for consistency, jdtset=   9.

================================================================================
== DATASET  1 ==================================================================
-   mpi_nproc: 12, omp_nthreads: -1 (-1 if OMP is not activated)
-    --> not optimal distribution: autoparal keyword recommended in input file <--


--- !DatasetInfo
iteration_state: {dtset: 1, }
dimensions: {natom: 2, nkpt: 8, mband: 5, nsppol: 1, nspinor: 1, nspden: 1, mpw: 560, }
cutoff_energies: {ecut:  12.0, pawecutdg:  -1.0, }
electrons: {nelect:   8.00000000E+00, charge:   0.00000000E+00, occopt:   1.00000000E+00, tsmear:   1.00000000E-02, }
meta: {optdriver: 0, ionmov: 0, optcell: 0, iscf: 7, paral_kgb: 0, }
...

 Exchange-correlation functional for the present dataset will be:
  GGA: Perdew-Burke-Ernzerhof functional - ixc=11
 Citation for XC functional:
  J.P.Perdew, K.Burke, M.Ernzerhof, PRL 77, 3865 (1996)

 Real(R)+Recip(G) space primitive vectors, cartesian coordinates (Bohr,Bohr^-1):
 R(1)=  0.0000000  5.1680000  5.1680000  G(1)= -0.0967492  0.0967492  0.0967492
 R(2)=  5.1680000  0.0000000  5.1680000  G(2)=  0.0967492 -0.0967492  0.0967492
 R(3)=  5.1680000  5.1680000  0.0000000  G(3)=  0.0967492  0.0967492 -0.0967492
 Unit cell volume ucvol=  2.7605620E+02 bohr^3
 Angles (23,13,12)=  6.00000000E+01  6.00000000E+01  6.00000000E+01 degrees

 getcut: wavevector=  0.0000  0.0000  0.0000  ngfft=  24  24  24
         ecut(hartree)=     12.000   => boxcut(ratio)=   2.10580

--- Pseudopotential description ------------------------------------------------
- pspini: atom type   1  psp file is ../../../pseudos/pseudo-dojo_nc_sr_pbe_standard/Si.psp8
- pspatm: opening atomic psp file    ../../../pseudos/pseudo-dojo_nc_sr_pbe_standard/Si.psp8
- Si    ONCVPSP-3.2.3.1  r_core=   1.60303   1.72197   1.91712
- 14.00000   4.00000    170510                znucl, zion, pspdat
    8   11    2    4       600   0.00000      pspcod,pspxc,lmax,lloc,mmax,r2well
    5.99000000000000    4.00000000000000    0.00000000000000   rchrg,fchrg,qchrg
     nproj     2     2     2
     extension_switch     1
  pspatm : epsatm=    9.34321699
         --- l  ekb(1:nproj) -->
             0    5.168965    0.829883
             1    2.571282    0.578307
             2   -2.427311   -0.488097
 pspatm: atomic psp has been read  and splines computed

   1.49491472E+02                                ecore*ucvol(ha*bohr**3)
--------------------------------------------------------------------------------

_setup2: Arith. and geom. avg. npw (full set) are     547.703     547.590

================================================================================

--- !BeginCycle
iteration_state: {dtset: 1, }
solver: {iscf: 7, nstep: 50, nline: 4, wfoptalg: 0, }
tolerances: {tolvrs: 1.00E-18, }
...

     iter   Etot(hartree)      deltaE(h)  residm     vres2
 ETOT  1  -8.4525501752772    -8.453E+00 8.426E-03 3.433E+00
 ETOT  2  -8.4554485732251    -2.898E-03 8.373E-06 5.911E-02
 ETOT  3  -8.4554756349904    -2.706E-05 5.460E-06 4.131E-04
 ETOT  4  -8.4554757287197    -9.373E-08 8.749E-08 1.210E-05
 ETOT  5  -8.4554757314252    -2.705E-09 8.081E-08 2.667E-07
 ETOT  6  -8.4554757314589    -3.365E-11 1.959E-09 5.803E-09
 ETOT  7  -8.4554757314598    -9.628E-13 1.788E-09 4.341E-11
 ETOT  8  -8.4554757314598     5.329E-14 4.706E-11 1.979E-13
 ETOT  9  -8.4554757314598    -4.441E-14 4.413E-11 9.753E-16
 ETOT 10  -8.4554757314597     8.704E-14 1.220E-12 4.340E-18
 ETOT 11  -8.4554757314598    -6.395E-14 1.116E-12 2.216E-20

 At SCF step   11       vres2   =  2.22E-20 < tolvrs=  1.00E-18 =>converged.

 Cartesian components of stress tensor (hartree/bohr^3)
  sigma(1 1)= -1.67706354E-05  sigma(3 2)=  0.00000000E+00
  sigma(2 2)= -1.67706354E-05  sigma(3 1)=  0.00000000E+00
  sigma(3 3)= -1.67706354E-05  sigma(2 1)=  0.00000000E+00


--- !ResultsGS
iteration_state: {dtset: 1, }
comment   : Summary of ground state results
lattice_vectors:
- [  0.0000000,   5.1680000,   5.1680000, ]
- [  5.1680000,   0.0000000,   5.1680000, ]
- [  5.1680000,   5.1680000,   0.0000000, ]
lattice_lengths: [   7.30866,    7.30866,    7.30866, ]
lattice_angles: [ 60.000,  60.000,  60.000, ] # degrees, (23, 13, 12)
lattice_volume:   2.7605620E+02
convergence: {deltae: -6.395E-14, res2:  2.216E-20, residm:  1.116E-12, diffor: null, }
etotal    :  -8.45547573E+00
entropy   :   0.00000000E+00
fermie    :   1.54757128E-01
cartesian_stress_tensor: # hartree/bohr^3
- [ -1.67706354E-05,   0.00000000E+00,   0.00000000E+00, ]
- [  0.00000000E+00,  -1.67706354E-05,   0.00000000E+00, ]
- [  0.00000000E+00,   0.00000000E+00,  -1.67706354E-05, ]
pressure_GPa:   4.9341E-01
xred      :
- [  0.0000E+00,   0.0000E+00,   0.0000E+00, Si]
- [  2.5000E-01,   2.5000E-01,   2.5000E-01, Si]
cartesian_forces: # hartree/bohr
- [ -4.88458765E-30,   1.62819588E-30,   1.62819588E-30, ]
- [  4.88458765E-30,  -1.62819588E-30,  -1.62819588E-30, ]
force_length_stats: {min:   5.40011483E-30, max:   5.40011483E-30, mean:   5.40011483E-30, }
...

 Integrated electronic density in atomic spheres:
 ------------------------------------------------
 Atom  Sphere_radius  Integrated_density
    1        2.00000          1.80232941
    2        2.00000          1.80232941
================================================================================

 ----iterations are completed or convergence reached----

 Mean square residual over all n,k,spin=   28.442E-15; max=  11.161E-13
 reduced coordinates (array xred) for    2 atoms
       0.000000000000      0.000000000000      0.000000000000
       0.250000000000      0.250000000000      0.250000000000
 rms dE/dt=  1.6829E-29; max dE/dt=  1.6829E-29; dE/dt below (all hartree)
    1      -0.000000000000      0.000000000000      0.000000000000
    2       0.000000000000     -0.000000000000     -0.000000000000

 cartesian coordinates (angstrom) at end:
    1      0.00000000000000     0.00000000000000     0.00000000000000
    2      1.36739390699656     1.36739390699656     1.36739390699656

 cartesian forces (hartree/bohr) at end:
    1     -0.00000000000000     0.00000000000000     0.00000000000000
    2      0.00000000000000    -0.00000000000000    -0.00000000000000
 frms,max,avg= 3.1177577E-30 4.8845876E-30   0.000E+00  0.000E+00  0.000E+00 h/b

 cartesian forces (eV/Angstrom) at end:
    1     -0.00000000000000     0.00000000000000     0.00000000000000
    2      0.00000000000000    -0.00000000000000    -0.00000000000000
 frms,max,avg= 1.6032154E-28 2.5117557E-28   0.000E+00  0.000E+00  0.000E+00 e/A
 length scales= 10.336000000000 10.336000000000 10.336000000000 bohr
              =  5.469575627986  5.469575627986  5.469575627986 angstroms
 prteigrs : about to open file ./outdata/1_response/response_DS1_EIG
 Fermi (or HOMO) energy (hartree) =   0.15476   Average Vxc (hartree)=  -0.33745
 Eigenvalues (hartree) for nkpt=   8  k points:
 kpt#   1, nband=  5, wtk=  0.01563, kpt=  0.0000  0.0000  0.0000 (reduced coord)
  -0.27996    0.15476    0.15476    0.15476    0.24782
 prteigrs : prtvol=0 or 1, do not print more k-points.


--- !EnergyTerms
iteration_state     : {dtset: 1, }
comment             : Components of total free energy in Hartree
kinetic             :  3.06355432983172E+00
hartree             :  5.68785617902513E-01
xc                  : -3.08523042582286E+00
Ewald energy        : -8.33869666275825E+00
psp_core            :  5.41525493962328E-01
local_psp           : -2.35013205344506E+00
non_local_psp       :  1.14471796886981E+00
total_energy        : -8.45547573145980E+00
total_energy_eV     : -2.30085195847667E+02
band_energy         : -2.29592225358825E-01
...


 Cartesian components of stress tensor (hartree/bohr^3)
  sigma(1 1)= -1.67706354E-05  sigma(3 2)=  0.00000000E+00
  sigma(2 2)= -1.67706354E-05  sigma(3 1)=  0.00000000E+00
  sigma(3 3)= -1.67706354E-05  sigma(2 1)=  0.00000000E+00

-Cartesian components of stress tensor (GPa)         [Pressure=  4.9341E-01 GPa]
- sigma(1 1)= -4.93409045E-01  sigma(3 2)=  0.00000000E+00
- sigma(2 2)= -4.93409045E-01  sigma(3 1)=  0.00000000E+00
- sigma(3 3)= -4.93409045E-01  sigma(2 1)=  0.00000000E+00

================================================================================
== DATASET  2 ==================================================================
-   mpi_nproc: 12, omp_nthreads: -1 (-1 if OMP is not activated)


--- !DatasetInfo
iteration_state: {dtset: 2, }
dimensions: {natom: 2, nkpt: 64, mband: 5, nsppol: 1, nspinor: 1, nspden: 1, mpw: 568, }
cutoff_energies: {ecut:  12.0, pawecutdg:  -1.0, }
electrons: {nelect:   8.00000000E+00, charge:   0.00000000E+00, occopt:   1.00000000E+00, tsmear:   1.00000000E-02, }
meta: {optdriver: 1, rfphon: 1, }
...

 mkfilename : getwfk/=0, take file _WFK from output of DATASET   1.

 Exchange-correlation functional for the present dataset will be:
  GGA: Perdew-Burke-Ernzerhof functional - ixc=11
 Citation for XC functional:
  J.P.Perdew, K.Burke, M.Ernzerhof, PRL 77, 3865 (1996)

 Real(R)+Recip(G) space primitive vectors, cartesian coordinates (Bohr,Bohr^-1):
 R(1)=  0.0000000  5.1680000  5.1680000  G(1)= -0.0967492  0.0967492  0.0967492
 R(2)=  5.1680000  0.0000000  5.1680000  G(2)=  0.0967492 -0.0967492  0.0967492
 R(3)=  5.1680000  5.1680000  0.0000000  G(3)=  0.0967492  0.0967492 -0.0967492
 Unit cell volume ucvol=  2.7605620E+02 bohr^3
 Angles (23,13,12)=  6.00000000E+01  6.00000000E+01  6.00000000E+01 degrees
 setup1 : take into account q-point for computing boxcut.

 getcut: wavevector=  0.0000  0.0000  0.0000  ngfft=  24  24  24
         ecut(hartree)=     12.000   => boxcut(ratio)=   2.10580
--------------------------------------------------------------------------------


 ==>  initialize data related to q vector <== 

 The list of irreducible perturbations for this q vector is:
    1)    idir= 1    ipert=   1

================================================================================

 The perturbation idir=   2  ipert=   1 is
 symmetric of a previously calculated perturbation.
 So, its SCF calculation is not needed.


 The perturbation idir=   3  ipert=   1 is
 symmetric of a previously calculated perturbation.
 So, its SCF calculation is not needed.


 The perturbation idir=   1  ipert=   2 is
 symmetric of a previously calculated perturbation.
 So, its SCF calculation is not needed.


 The perturbation idir=   2  ipert=   2 is
 symmetric of a previously calculated perturbation.
 So, its SCF calculation is not needed.


 The perturbation idir=   3  ipert=   2 is
 symmetric of a previously calculated perturbation.
 So, its SCF calculation is not needed.


--------------------------------------------------------------------------------
 Perturbation wavevector (in red.coord.)   0.000000  0.000000  0.000000
 Perturbation : displacement of atom   1   along direction   1
 Found     2 symmetries that leave the perturbation invariant.
 symkpt : the number of k-points, thanks to the symmetries,
 is reduced to    40 .

--------------------------------------------------------------------------------

--------------------------------------------------------------------------------

 Initialisation of the first-order wave-functions :
  ireadwf=   0

--- !BeginCycle
iteration_state: {dtset: 2, }
solver: {iscf: 7, nstep: 50, nline: 4, wfoptalg: 0, }
tolerances: {tolvrs: 1.00E-08, }
...

     iter   2DEtotal(Ha)        deltaE(Ha) residm    vres2
-ETOT  1   7.5793238357519     -7.507E+01 1.743E+00 8.938E+01
 ETOT  2   7.4610580079146     -1.183E-01 1.209E+00 1.960E+00
 ETOT  3   7.4598616047684     -1.196E-03 6.024E-01 6.415E-02
 ETOT  4   7.4598281478877     -3.346E-05 1.316E+00 2.425E-03
 ETOT  5   7.4598271790110     -9.689E-07 6.455E-01 3.977E-05
 ETOT  6   7.4598271583857     -2.063E-08 1.339E+00 1.244E-06
 ETOT  7   7.4598271576058     -7.799E-10 6.464E-01 5.968E-08
 ETOT  8   7.4598271575670     -3.881E-11 1.349E+00 2.039E-09

 At SCF step    8       vres2   =  2.04E-09 < tolvrs=  1.00E-08 =>converged.
================================================================================

 ----iterations are completed or convergence reached----

 Mean square residual over all n,k,spin=   15.608E-03; max=  13.492E-01

 Thirteen components of 2nd-order total energy (hartree) are
 1,2,3: 0th-order hamiltonian combined with 1st-order wavefunctions
     kin0=   7.52259315E+01 eigvalue=  -1.05956854E+00  local=  -4.42756530E+01
 4,5,6: 1st-order hamiltonian combined with 1st and 0th-order wfs
 loc psp =  -3.87777983E+01  Hartree=   1.43693824E+01     xc=  -6.66402018E+00
 note that "loc psp" includes a xc core correction that could be resolved
 7,8,9: eventually, occupation + non-local contributions
    edocc=   1.85376219E+00     enl0=   3.57388771E+01   enl1=  -1.11599626E+02
 1-9 gives the relaxation energy (to be shifted if some occ is /=2.0)
   erelax=  -7.51887132E+01
 10,11,12 Non-relaxation  contributions : frozen-wavefunctions and Ewald
 fr.local=   1.12184478E+01 fr.nonlo=   6.09482528E+01  Ewald=   1.29683907E+01
 13,14 Frozen wf xc core corrections (1) and (2)
 frxc 1  =  -7.99158721E+00  frxc 2 =   5.50503626E+00
 Resulting in :
 2DEtotal=    0.7459827158E+01 Ha. Also 2DEtotal=    0.202992220314E+03 eV
    (2DErelax=   -7.5188713222E+01 Ha. 2DEnonrelax=    8.2648540380E+01 Ha)
    (  non-var. 2DEtotal :    7.4598280336E+00 Ha)

================================================================================

 ---- first-order wavefunction calculations are completed ----


 ==> Compute Derivative Database <==
  
  2nd-order matrix (non-cartesian coordinates, masses not included,
   asr not included )
     j1       j2             matrix element
  dir pert dir pert     real part     imaginary part
  
   1    1   1    1         7.4598280049         0.0000000000
   1    1   2    1         3.7299140024         0.0000000000
   1    1   3    1         3.7299140024         0.0000000000
   1    1   1    2        -7.4598260922        -0.0000000000
   1    1   2    2        -3.7299130461        -0.0000000000
   1    1   3    2        -3.7299130461        -0.0000000000
   1    1   2    4         0.0000000000         0.0000000000
   1    1   3    4         0.0000000000         0.0000000000
  
   2    1   1    1         3.7299140024         0.0000000000
   2    1   2    1         7.4598280049         0.0000000000
   2    1   3    1         3.7299140024         0.0000000000
   2    1   1    2        -3.7299130461        -0.0000000000
   2    1   2    2        -7.4598260922         0.0000000000
   2    1   3    2        -3.7299130461        -0.0000000000
   2    1   1    4         0.0000000000         0.0000000000
   2    1   3    4         0.0000000000         0.0000000000
  
   3    1   1    1         3.7299140024         0.0000000000
   3    1   2    1         3.7299140024         0.0000000000
   3    1   3    1         7.4598280049         0.0000000000
   3    1   1    2        -3.7299130461        -0.0000000000
   3    1   2    2        -3.7299130461        -0.0000000000
   3    1   3    2        -7.4598260922         0.0000000000
   3    1   1    4         0.0000000000         0.0000000000
   3    1   2    4         0.0000000000         0.0000000000
  
   1    2   1    1        -7.4598260922         0.0000000000
   1    2   2    1        -3.7299130461         0.0000000000
   1    2   3    1        -3.7299130461         0.0000000000
   1    2   1    2         7.4598280049         0.0000000000
   1    2   2    2         3.7299140024         0.0000000000
   1    2   3    2         3.7299140024         0.0000000000
   1    2   2    4         0.0000000000         0.0000000000
   1    2   3    4         0.0000000000         0.0000000000
  
   2    2   1    1        -3.7299130461         0.0000000000
   2    2   2    1        -7.4598260922        -0.0000000000
   2    2   3    1        -3.7299130461         0.0000000000
   2    2   1    2         3.7299140024         0.0000000000
   2    2   2    2         7.4598280049         0.0000000000
   2    2   3    2         3.7299140024         0.0000000000
   2    2   1    4         0.0000000000         0.0000000000
   2    2   3    4         0.0000000000         0.0000000000
  
   3    2   1    1        -3.7299130461         0.0000000000
   3    2   2    1        -3.7299130461         0.0000000000
   3    2   3    1        -7.4598260922        -0.0000000000
   3    2   1    2         3.7299140024         0.0000000000
   3    2   2    2         3.7299140024         0.0000000000
   3    2   3    2         7.4598280049         0.0000000000
   3    2   1    4         0.0000000000         0.0000000000
   3    2   2    4         0.0000000000         0.0000000000
  
   1    4   2    1         0.0000000000         0.0000000000
   1    4   3    1         0.0000000000         0.0000000000
   1    4   2    2         0.0000000000         0.0000000000
   1    4   3    2         0.0000000000         0.0000000000
  
   2    4   1    1         0.0000000000         0.0000000000
   2    4   3    1         0.0000000000         0.0000000000
   2    4   1    2         0.0000000000         0.0000000000
   2    4   3    2         0.0000000000         0.0000000000
  
   3    4   1    1         0.0000000000         0.0000000000
   3    4   2    1         0.0000000000         0.0000000000
   3    4   1    2         0.0000000000         0.0000000000
   3    4   2    2         0.0000000000         0.0000000000
  
  
  Dynamical matrix, in cartesian coordinates,
   if specified in the inputs, asr has been imposed
     j1       j2             matrix element
  dir pert dir pert     real part    imaginary part
  
   1    1   1    1         0.1396541381         0.0000000000
   1    1   2    1        -0.0000000000         0.0000000000
   1    1   3    1        -0.0000000000         0.0000000000
   1    1   1    2        -0.1396541023         0.0000000000
   1    1   2    2        -0.0000000000        -0.0000000000
   1    1   3    2        -0.0000000000        -0.0000000000
  
   2    1   1    1         0.0000000000         0.0000000000
   2    1   2    1         0.1396541381         0.0000000000
   2    1   3    1        -0.0000000000         0.0000000000
   2    1   1    2        -0.0000000000        -0.0000000000
   2    1   2    2        -0.1396541023         0.0000000000
   2    1   3    2         0.0000000000        -0.0000000000
  
   3    1   1    1         0.0000000000         0.0000000000
   3    1   2    1        -0.0000000000         0.0000000000
   3    1   3    1         0.1396541381         0.0000000000
   3    1   1    2         0.0000000000        -0.0000000000
   3    1   2    2         0.0000000000        -0.0000000000
   3    1   3    2        -0.1396541023         0.0000000000
  
   1    2   1    1        -0.1396541023        -0.0000000000
   1    2   2    1        -0.0000000000         0.0000000000
   1    2   3    1        -0.0000000000         0.0000000000
   1    2   1    2         0.1396541381         0.0000000000
   1    2   2    2        -0.0000000000         0.0000000000
   1    2   3    2        -0.0000000000         0.0000000000
  
   2    2   1    1        -0.0000000000         0.0000000000
   2    2   2    1        -0.1396541023        -0.0000000000
   2    2   3    1         0.0000000000         0.0000000000
   2    2   1    2        -0.0000000000         0.0000000000
[...]
        optdriver1          0
        optdriver2          1
        optdriver3          1
        optdriver4          1
        optdriver5          1
        optdriver6          1
        optdriver7          1
        optdriver8          1
        optdriver9          1
           prtpot1          0
           prtpot2          1
           prtpot3          1
           prtpot4          1
           prtpot5          1
           prtpot6          1
           prtpot7          1
           prtpot8          1
           prtpot9          1
              qpt1     0.00000000E+00  0.00000000E+00  0.00000000E+00
              qpt2     0.00000000E+00  0.00000000E+00  0.00000000E+00
              qpt3     2.50000000E-01  0.00000000E+00  0.00000000E+00
              qpt4     5.00000000E-01  0.00000000E+00  0.00000000E+00
              qpt5     2.50000000E-01  2.50000000E-01  0.00000000E+00
              qpt6     5.00000000E-01  2.50000000E-01  0.00000000E+00
              qpt7    -2.50000000E-01  2.50000000E-01  0.00000000E+00
              qpt8     5.00000000E-01  5.00000000E-01  0.00000000E+00
              qpt9    -2.50000000E-01  5.00000000E-01  2.50000000E-01
           rfphon1          0
           rfphon2          1
           rfphon3          1
           rfphon4          1
           rfphon5          1
           rfphon6          1
           rfphon7          1
           rfphon8          1
           rfphon9          1
            rprim      0.0000000000E+00  5.0000000000E-01  5.0000000000E-01
                       5.0000000000E-01  0.0000000000E+00  5.0000000000E-01
                       5.0000000000E-01  5.0000000000E-01  0.0000000000E+00
          spgroup         227
           strten1    -1.6770635392E-05 -1.6770635392E-05 -1.6770635392E-05
                       0.0000000000E+00  0.0000000000E+00  0.0000000000E+00
           strten2     0.0000000000E+00  0.0000000000E+00  0.0000000000E+00
                       0.0000000000E+00  0.0000000000E+00  0.0000000000E+00
           strten3     0.0000000000E+00  0.0000000000E+00  0.0000000000E+00
                       0.0000000000E+00  0.0000000000E+00  0.0000000000E+00
           strten4     0.0000000000E+00  0.0000000000E+00  0.0000000000E+00
                       0.0000000000E+00  0.0000000000E+00  0.0000000000E+00
           strten5     0.0000000000E+00  0.0000000000E+00  0.0000000000E+00
                       0.0000000000E+00  0.0000000000E+00  0.0000000000E+00
           strten6     0.0000000000E+00  0.0000000000E+00  0.0000000000E+00
                       0.0000000000E+00  0.0000000000E+00  0.0000000000E+00
           strten7     0.0000000000E+00  0.0000000000E+00  0.0000000000E+00
                       0.0000000000E+00  0.0000000000E+00  0.0000000000E+00
           strten8     0.0000000000E+00  0.0000000000E+00  0.0000000000E+00
                       0.0000000000E+00  0.0000000000E+00  0.0000000000E+00
           strten9     0.0000000000E+00  0.0000000000E+00  0.0000000000E+00
                       0.0000000000E+00  0.0000000000E+00  0.0000000000E+00
           symrel      1  0  0   0  1  0   0  0  1      -1  0  0   0 -1  0   0  0 -1
                       0 -1  1   0 -1  0   1 -1  0       0  1 -1   0  1  0  -1  1  0
                      -1  0  0  -1  0  1  -1  1  0       1  0  0   1  0 -1   1 -1  0
                       0  1 -1   1  0 -1   0  0 -1       0 -1  1  -1  0  1   0  0  1
                      -1  0  0  -1  1  0  -1  0  1       1  0  0   1 -1  0   1  0 -1
                       0 -1  1   1 -1  0   0 -1  0       0  1 -1  -1  1  0   0  1  0
                       1  0  0   0  0  1   0  1  0      -1  0  0   0  0 -1   0 -1  0
                       0  1 -1   0  0 -1   1  0 -1       0 -1  1   0  0  1  -1  0  1
                      -1  0  1  -1  1  0  -1  0  0       1  0 -1   1 -1  0   1  0  0
                       0 -1  0   1 -1  0   0 -1  1       0  1  0  -1  1  0   0  1 -1
                       1  0 -1   0  0 -1   0  1 -1      -1  0  1   0  0  1   0 -1  1
                       0  1  0   0  0  1   1  0  0       0 -1  0   0  0 -1  -1  0  0
                       1  0 -1   0  1 -1   0  0 -1      -1  0  1   0 -1  1   0  0  1
                       0 -1  0   0 -1  1   1 -1  0       0  1  0   0  1 -1  -1  1  0
                      -1  0  1  -1  0  0  -1  1  0       1  0 -1   1  0  0   1 -1  0
                       0  1  0   1  0  0   0  0  1       0 -1  0  -1  0  0   0  0 -1
                       0  0 -1   0  1 -1   1  0 -1       0  0  1   0 -1  1  -1  0  1
                       1 -1  0   0 -1  1   0 -1  0      -1  1  0   0  1 -1   0  1  0
                       0  0  1   1  0  0   0  1  0       0  0 -1  -1  0  0   0 -1  0
                      -1  1  0  -1  0  0  -1  0  1       1 -1  0   1  0  0   1  0 -1
                       0  0  1   0  1  0   1  0  0       0  0 -1   0 -1  0  -1  0  0
                       1 -1  0   0 -1  0   0 -1  1      -1  1  0   0  1  0   0  1 -1
                       0  0 -1   1  0 -1   0  1 -1       0  0  1  -1  0  1   0 -1  1
                      -1  1  0  -1  0  1  -1  0  0       1 -1  0   1  0 -1   1  0  0
            tnons      0.0000000  0.0000000  0.0000000     0.2500000  0.2500000  0.2500000
                       0.0000000  0.0000000  0.0000000     0.2500000  0.2500000  0.2500000
                       0.0000000  0.0000000  0.0000000     0.2500000  0.2500000  0.2500000
                       0.0000000  0.0000000  0.0000000     0.2500000  0.2500000  0.2500000
                       0.0000000  0.0000000  0.0000000     0.2500000  0.2500000  0.2500000
                       0.0000000  0.0000000  0.0000000     0.2500000  0.2500000  0.2500000
                       0.0000000  0.0000000  0.0000000     0.2500000  0.2500000  0.2500000
                       0.0000000  0.0000000  0.0000000     0.2500000  0.2500000  0.2500000
                       0.0000000  0.0000000  0.0000000     0.2500000  0.2500000  0.2500000
                       0.0000000  0.0000000  0.0000000     0.2500000  0.2500000  0.2500000
                       0.0000000  0.0000000  0.0000000     0.2500000  0.2500000  0.2500000
                       0.0000000  0.0000000  0.0000000     0.2500000  0.2500000  0.2500000
                       0.0000000  0.0000000  0.0000000     0.2500000  0.2500000  0.2500000
                       0.0000000  0.0000000  0.0000000     0.2500000  0.2500000  0.2500000
                       0.0000000  0.0000000  0.0000000     0.2500000  0.2500000  0.2500000
                       0.0000000  0.0000000  0.0000000     0.2500000  0.2500000  0.2500000
                       0.0000000  0.0000000  0.0000000     0.2500000  0.2500000  0.2500000
                       0.0000000  0.0000000  0.0000000     0.2500000  0.2500000  0.2500000
                       0.0000000  0.0000000  0.0000000     0.2500000  0.2500000  0.2500000
                       0.0000000  0.0000000  0.0000000     0.2500000  0.2500000  0.2500000
                       0.0000000  0.0000000  0.0000000     0.2500000  0.2500000  0.2500000
                       0.0000000  0.0000000  0.0000000     0.2500000  0.2500000  0.2500000
                       0.0000000  0.0000000  0.0000000     0.2500000  0.2500000  0.2500000
                       0.0000000  0.0000000  0.0000000     0.2500000  0.2500000  0.2500000
           tolvrs1     1.00000000E-18
           tolvrs2     1.00000000E-08
           tolvrs3     1.00000000E-08
           tolvrs4     1.00000000E-08
           tolvrs5     1.00000000E-08
           tolvrs6     1.00000000E-08
           tolvrs7     1.00000000E-08
           tolvrs8     1.00000000E-08
           tolvrs9     1.00000000E-08
            typat      1  1
              wtk1       0.01563    0.12500    0.06250    0.09375    0.37500    0.18750
                         0.04688    0.09375
              wtk2       0.01563    0.01563    0.01563    0.01563    0.01563    0.01563
                         0.01563    0.01563    0.01563    0.01563    0.01563    0.01563
                         0.01563    0.01563    0.01563    0.01563    0.01563    0.01563
                         0.01563    0.01563    0.01563    0.01563    0.01563    0.01563
                         0.01563    0.01563    0.01563    0.01563    0.01563    0.01563
                         0.01563    0.01563    0.01563    0.01563    0.01563    0.01563
                         0.01563    0.01563    0.01563    0.01563    0.01563    0.01563
                         0.01563    0.01563    0.01563    0.01563    0.01563    0.01563
                         0.01563    0.01563
              wtk3       0.01563    0.01563    0.01563    0.01563    0.01563    0.01563
                         0.01563    0.01563    0.01563    0.01563    0.01563    0.01563
                         0.01563    0.01563    0.01563    0.01563    0.01563    0.01563
                         0.01563    0.01563    0.01563    0.01563    0.01563    0.01563
                         0.01563    0.01563    0.01563    0.01563    0.01563    0.01563
                         0.01563    0.01563    0.01563    0.01563    0.01563    0.01563
                         0.01563    0.01563    0.01563    0.01563    0.01563    0.01563
                         0.01563    0.01563    0.01563    0.01563    0.01563    0.01563
                         0.01563    0.01563
              wtk4       0.01563    0.01563    0.01563    0.01563    0.01563    0.01563
                         0.01563    0.01563    0.01563    0.01563    0.01563    0.01563
                         0.01563    0.01563    0.01563    0.01563    0.01563    0.01563
                         0.01563    0.01563    0.01563    0.01563    0.01563    0.01563
                         0.01563    0.01563    0.01563    0.01563    0.01563    0.01563
                         0.01563    0.01563    0.01563    0.01563    0.01563    0.01563
                         0.01563    0.01563    0.01563    0.01563    0.01563    0.01563
                         0.01563    0.01563    0.01563    0.01563    0.01563    0.01563
                         0.01563    0.01563
              wtk5       0.01563    0.01563    0.01563    0.01563    0.01563    0.01563
                         0.01563    0.01563    0.01563    0.01563    0.01563    0.01563
                         0.01563    0.01563    0.01563    0.01563    0.01563    0.01563
                         0.01563    0.01563    0.01563    0.01563    0.01563    0.01563
                         0.01563    0.01563    0.01563    0.01563    0.01563    0.01563
                         0.01563    0.01563    0.01563    0.01563    0.01563    0.01563
                         0.01563    0.01563    0.01563    0.01563    0.01563    0.01563
                         0.01563    0.01563    0.01563    0.01563    0.01563    0.01563
                         0.01563    0.01563
              wtk6       0.01563    0.01563    0.01563    0.01563    0.01563    0.01563
                         0.01563    0.01563    0.01563    0.01563    0.01563    0.01563
                         0.01563    0.01563    0.01563    0.01563    0.01563    0.01563
                         0.01563    0.01563    0.01563    0.01563    0.01563    0.01563
                         0.01563    0.01563    0.01563    0.01563    0.01563    0.01563
                         0.01563    0.01563    0.01563    0.01563    0.01563    0.01563
                         0.01563    0.01563    0.01563    0.01563    0.01563    0.01563
                         0.01563    0.01563    0.01563    0.01563    0.01563    0.01563
                         0.01563    0.01563
              wtk7       0.01563    0.01563    0.01563    0.01563    0.01563    0.01563
                         0.01563    0.01563    0.01563    0.01563    0.01563    0.01563
                         0.01563    0.01563    0.01563    0.01563    0.01563    0.01563
                         0.01563    0.01563    0.01563    0.01563    0.01563    0.01563
                         0.01563    0.01563    0.01563    0.01563    0.01563    0.01563
                         0.01563    0.01563    0.01563    0.01563    0.01563    0.01563
                         0.01563    0.01563    0.01563    0.01563    0.01563    0.01563
                         0.01563    0.01563    0.01563    0.01563    0.01563    0.01563
                         0.01563    0.01563
              wtk8       0.01563    0.01563    0.01563    0.01563    0.01563    0.01563
                         0.01563    0.01563    0.01563    0.01563    0.01563    0.01563
                         0.01563    0.01563    0.01563    0.01563    0.01563    0.01563
                         0.01563    0.01563    0.01563    0.01563    0.01563    0.01563
                         0.01563    0.01563    0.01563    0.01563    0.01563    0.01563
                         0.01563    0.01563    0.01563    0.01563    0.01563    0.01563
                         0.01563    0.01563    0.01563    0.01563    0.01563    0.01563
                         0.01563    0.01563    0.01563    0.01563    0.01563    0.01563
                         0.01563    0.01563
              wtk9       0.01563    0.01563    0.01563    0.01563    0.01563    0.01563
                         0.01563    0.01563    0.01563    0.01563    0.01563    0.01563
                         0.01563    0.01563    0.01563    0.01563    0.01563    0.01563
                         0.01563    0.01563    0.01563    0.01563    0.01563    0.01563
                         0.01563    0.01563    0.01563    0.01563    0.01563    0.01563
                         0.01563    0.01563    0.01563    0.01563    0.01563    0.01563
                         0.01563    0.01563    0.01563    0.01563    0.01563    0.01563
                         0.01563    0.01563    0.01563    0.01563    0.01563    0.01563
                         0.01563    0.01563
                       outvars : Printing only first  50 k-points.
           xangst      0.0000000000E+00  0.0000000000E+00  0.0000000000E+00
                       1.3673939070E+00  1.3673939070E+00  1.3673939070E+00
            xcart      0.0000000000E+00  0.0000000000E+00  0.0000000000E+00
                       2.5840000000E+00  2.5840000000E+00  2.5840000000E+00
             xred      0.0000000000E+00  0.0000000000E+00  0.0000000000E+00
                       2.5000000000E-01  2.5000000000E-01  2.5000000000E-01
            znucl       14.00000

================================================================================


- Timing analysis has been suppressed with timopt=0



================================================================================

 Suggested references for the acknowledgment of ABINIT usage.

 The users of ABINIT have little formal obligations with respect to the ABINIT group
 (those specified in the GNU General Public License, http://www.gnu.org/copyleft/gpl.txt).
 However, it is common practice in the scientific literature,
 to acknowledge the efforts of people that have made the research possible.
 In this spirit, please find below suggested citations of work written by ABINIT developers,
 corresponding to implementations inside of ABINIT that you have used in the present run.
 Note also that it will be of great value to readers of publications presenting these results,
 to read papers enabling them to understand the theoretical formalism and details
 of the ABINIT implementation.
 For information on why they are suggested, see also https://docs.abinit.org/theory/acknowledgments.
-
- [1] The Abinit project: Impact, environment and recent developments.
- Computer Phys. Comm. 248, 107042 (2020).
- X.Gonze, B. Amadon, G. Antonius, F.Arnardi, L.Baguet, J.-M.Beuken,
- J.Bieder, F.Bottin, J.Bouchet, E.Bousquet, N.Brouwer, F.Bruneval,
- G.Brunin, T.Cavignac, J.-B. Charraud, Wei Chen, M.Cote, S.Cottenier,
- J.Denier, G.Geneste, Ph.Ghosez, M.Giantomassi, Y.Gillet, O.Gingras,
- D.R.Hamann, G.Hautier, Xu He, N.Helbig, N.Holzwarth, Y.Jia, F.Jollet,
- W.Lafargue-Dit-Hauret, K.Lejaeghere, M.A.L.Marques, A.Martin, C.Martins,
- H.P.C. Miranda, F.Naccarato, K. Persson, G.Petretto, V.Planes, Y.Pouillon,
- S.Prokhorenko, F.Ricci, G.-M.Rignanese, A.H.Romero, M.M.Schmitt, M.Torrent,
- M.J.van Setten, B.Van Troeye, M.J.Verstraete, G.Zerah and J.W.Zwanzig
- Comment: the fifth generic paper describing the ABINIT project.
- Note that a version of this paper, that is not formatted for Computer Phys. Comm. 
- is available at https://www.abinit.org/sites/default/files/ABINIT20.pdf .
- The licence allows the authors to put it on the Web.
- DOI and bibtex: see https://docs.abinit.org/theory/bibliography/#gonze2020
-
- [2] First-principles responses of solids to atomic displacements and homogeneous electric fields:,
- implementation of a conjugate-gradient algorithm. X. Gonze, Phys. Rev. B55, 10337 (1997).
- Comment: Non-vanishing rfphon and/or rfelfd, in the norm-conserving case.
- DOI and bibtex: see https://docs.abinit.org/theory/bibliography/#gonze1997
-
- [3] Dynamical matrices, Born effective charges, dielectric permittivity tensors, and ,
- interatomic force constants from density-functional perturbation theory,
- X. Gonze and C. Lee, Phys. Rev. B55, 10355 (1997).
- Comment: Non-vanishing rfphon and/or rfelfd, in the norm-conserving case.
- DOI and bibtex: see https://docs.abinit.org/theory/bibliography/#gonze1997a
-
- [4] Optimized norm-conserving Vanderbilt pseudopotentials.
- D.R. Hamann, Phys. Rev. B 88, 085117 (2013).
- Comment: Some pseudopotential generated using the ONCVPSP code were used.
- DOI and bibtex: see https://docs.abinit.org/theory/bibliography/#hamann2013
-
- [5] ABINIT: Overview, and focus on selected capabilities
- J. Chem. Phys. 152, 124102 (2020).
- A. Romero, D.C. Allan, B. Amadon, G. Antonius, T. Applencourt, L.Baguet,
- J.Bieder, F.Bottin, J.Bouchet, E.Bousquet, F.Bruneval,
- G.Brunin, D.Caliste, M.Cote,
- J.Denier, C. Dreyer, Ph.Ghosez, M.Giantomassi, Y.Gillet, O.Gingras,
- D.R.Hamann, G.Hautier, F.Jollet, G. Jomard,
- A.Martin, 
- H.P.C. Miranda, F.Naccarato, G.Petretto, N.A. Pike, V.Planes,
- S.Prokhorenko, T. Rangel, F.Ricci, G.-M.Rignanese, M.Royo, M.Stengel, M.Torrent,
- M.J.van Setten, B.Van Troeye, M.J.Verstraete, J.Wiktor, J.W.Zwanziger, and X.Gonze.
- Comment: a global overview of ABINIT, with focus on selected capabilities .
- Note that a version of this paper, that is not formatted for J. Chem. Phys 
- is available at https://www.abinit.org/sites/default/files/ABINIT20_JPC.pdf .
- The licence allows the authors to put it on the Web.
- DOI and bibtex: see https://docs.abinit.org/theory/bibliography/#romero2020
-
- [6] Recent developments in the ABINIT software package.
- Computer Phys. Comm. 205, 106 (2016).
- X.Gonze, F.Jollet, F.Abreu Araujo, D.Adams, B.Amadon, T.Applencourt,
- C.Audouze, J.-M.Beuken, J.Bieder, A.Bokhanchuk, E.Bousquet, F.Bruneval
- D.Caliste, M.Cote, F.Dahm, F.Da Pieve, M.Delaveau, M.Di Gennaro,
- B.Dorado, C.Espejo, G.Geneste, L.Genovese, A.Gerossier, M.Giantomassi,
- Y.Gillet, D.R.Hamann, L.He, G.Jomard, J.Laflamme Janssen, S.Le Roux,
- A.Levitt, A.Lherbier, F.Liu, I.Lukacevic, A.Martin, C.Martins,
- M.J.T.Oliveira, S.Ponce, Y.Pouillon, T.Rangel, G.-M.Rignanese,
- A.H.Romero, B.Rousseau, O.Rubel, A.A.Shukri, M.Stankovski, M.Torrent,
- M.J.Van Setten, B.Van Troeye, M.J.Verstraete, D.Waroquier, J.Wiktor,
- B.Xu, A.Zhou, J.W.Zwanziger.
- Comment: the fourth generic paper describing the ABINIT project.
- Note that a version of this paper, that is not formatted for Computer Phys. Comm. 
- is available at https://www.abinit.org/sites/default/files/ABINIT16.pdf .
- The licence allows the authors to put it on the Web.
- DOI and bibtex: see https://docs.abinit.org/theory/bibliography/#gonze2016
-
- Proc.   0 individual time (sec): cpu=         18.3  wall=         18.6

================================================================================

 Calculation completed.
.Delivered   0 WARNINGs and   0 COMMENTs to log file.
+Overall time at end (sec) : cpu=        220.6  wall=        221.3
